version 2
run General-0-20150511-14:04:55-7688
attr configname General
attr datetime 20150511-14:04:55
attr experiment General
attr inifile omnetpp.ini
attr iterationvars $jobs=5
attr iterationvars2 "$jobs=5, $repetition=0"
attr jobs 5
attr measurement $jobs=5
attr network Wsn
attr processid 7688
attr repetition 0
attr replication #0
attr resultdir results
attr runnumber 0
attr seedset 0

vector 3  Wsn.node[0].queue  "rate of channel"  ETV
3	2	0	1
3	8	0.592844616388	1
3	14	1.195607986765	1
3	20	2.042859724022	1
3	26	2.250984724022	0.8
3	32	2.688753839114	0.83333333333333
3	38	3.58052684087	0.85714285714286
3	44	3.78865184087	0.75
3	49	3.853183135387	0.77777777777778
3	56	4.665351861851	0.8
3	62	4.873476861851	0.72727272727273
3	68	5.233396425606	0.75
3	73	5.304432484316	0.76923076923077
3	80	5.512557484316	0.71428571428571
3	86	5.952604360873	0.73333333333333
3	92	6.909759515192	0.75
3	98	7.779771660448	0.76470588235294
3	104	8.253379700466	0.77777777777778
3	110	8.714859063264	0.78947368421053
3	116	8.922984063264	0.75
3	122	9.393738596925	0.76190476190476
3	128	9.975758388164	0.77272727272727
3	134	10.920427306779	0.78260869565217
3	140	11.026334913205	0.79166666666667
3	145	11.128552306779	0.76
3	152	11.234459913205	0.73076923076923
3	157	11.290890524619	0.74074074074074
3	164	11.507440881327	0.75
3	169	11.526230679348	0.75862068965517
3	176	11.675905543135	0.76666666666667
3	181	11.715565881327	0.74193548387097
3	188	11.884030543135	0.71875
3	194	12.292839541786	0.72727272727273
3	200	12.742789531346	0.73529411764706
3	206	13.17982148401	0.74285714285714
3	211	13.27910183555	0.75
3	218	13.38794648401	0.72972972972973
3	223	13.48722683555	0.71052631578947
3	230	13.945868546827	0.71794871794872
3	236	14.304020717026	0.725
3	242	14.512145717026	0.70731707317073
3	248	14.619449066681	0.71428571428571
3	254	15.189645842633	0.72093023255814
3	260	15.823919895787	0.72727272727273
3	265	15.925964702602	0.73333333333333
3	272	16.032044895787	0.71739130434783
3	277	16.134089702602	0.70212765957447
3	284	16.56102357966	0.70833333333333
3	290	16.814315180975	0.71428571428571
3	296	17.022440180975	0.7
3	302	17.289012686098	0.70588235294118
3	308	17.627020303606	0.71153846153846
3	314	17.835145303606	0.69811320754717
3	320	18.283349895597	0.7037037037037
3	326	18.479932252297	0.70909090909091
3	332	19.142459120347	0.71428571428571
3	337	19.239560391499	0.71929824561404
3	344	19.447685391499	0.70689655172414
3	350	19.91322002255	0.71186440677966
3	356	20.791413491103	0.71666666666667
3	362	20.999538491103	0.70491803278689
3	368	21.768174581905	0.70967741935484
3	374	22.507438163249	0.71428571428571
3	380	22.715563163249	0.703125
3	386	22.949149084719	0.70769230769231
3	392	23.308593553699	0.71212121212121
3	398	23.427321267987	0.71641791044776
3	403	23.516718553699	0.70588235294118
3	410	24.307797161138	0.71014492753623
3	416	24.515922161138	0.7
3	421	24.524619294304	0.70422535211268
3	428	25.389721858288	0.70833333333333
3	434	25.912969911211	0.71232876712329
3	440	26.121094911211	0.7027027027027
3	446	26.83412752321	0.70666666666667
3	452	27.04225252321	0.69736842105263
3	457	27.111846087239	0.7012987012987
3	464	27.95418816639	0.70512820512821
3	470	28.670515364239	0.70886075949367
3	476	28.878640364239	0.7
3	481	28.935245528554	0.7037037037037
3	488	29.143370528554	0.69512195121951
3	494	29.488067012715	0.69879518072289
3	500	29.857875108455	0.70238095238095
3	506	30.066000108455	0.69411764705882
3	512	30.535691647759	0.69767441860465
3	518	31.270885668197	0.70114942528736
3	524	31.479010668197	0.69318181818182
3	530	31.70417373205	0.69662921348315
3	536	32.10027201028	0.7
3	542	32.30839701028	0.69230769230769
3	548	32.672523911776	0.69565217391304
3	554	33.62527292102	0.6989247311828
3	560	34.074470652932	0.70212765957447
3	566	34.282595652932	0.69473684210526
3	572	34.77394993041	0.69791666666667
3	578	34.98207493041	0.69072164948454
3	584	35.58774775007	0.69387755102041
3	590	36.468850950907	0.6969696969697
3	596	36.782069283035	0.7
3	602	36.990194283035	0.69306930693069
3	608	37.474600874549	0.69607843137255
3	614	37.682725874549	0.68932038834951
3	620	37.975925257625	0.69230769230769
3	626	38.619915454145	0.6952380952381
3	632	38.828040454145	0.68867924528302
3	638	39.238724015149	0.69158878504673
3	644	39.708856203554	0.69444444444444
3	650	39.916981203554	0.68807339449541
3	656	40.369029741927	0.69090909090909
3	662	40.987045168836	0.69369369369369
3	668	41.865497359965	0.69642857142857
3	674	42.073622359965	0.69026548672566
3	679	42.163779687793	0.69298245614035
3	686	42.75465245075	0.69565217391304
3	691	42.788277544504	0.69827586206897
3	698	42.96277745075	0.69230769230769
3	704	43.440380818866	0.69491525423729
3	710	43.648505818866	0.6890756302521
3	716	44.336927417157	0.69166666666667
3	722	44.772792336487	0.69421487603306
3	728	45.033133265052	0.69672131147541
3	734	45.73702185061	0.69918699186992
3	739	45.836590935431	0.70161290322581
3	746	46.044715935431	0.696
3	752	46.550832233812	0.6984126984127
3	758	46.700280538481	0.7007874015748
3	763	46.737839922961	0.703125
3	770	46.908405538481	0.69767441860465
3	775	46.945964922961	0.69230769230769
3	782	47.353399490425	0.69465648854962
3	788	48.218332783272	0.6969696969697
