file 7661750 1433402484                                         
version 2
run General-0-20150604-15:21:13-9616
attr configname General
attr datetime 20150604-15:21:13
attr experiment General
attr inifile omnetpp.ini
attr iterationvars $jobs=1
attr iterationvars2 "$jobs=1, $repetition=0"
attr jobs 1
attr measurement $jobs=1
attr network Wsn
attr processid 9616
attr repetition 0
attr replication #0
attr resultdir results
attr runnumber 0
attr seedset 0

vector 32  Wsn.Sensor_0.queue  "rate of channel"  ETV
vector 37  Wsn.Sensor_1.queue  "rate of channel"  ETV
vector 42  Wsn.Sensor_2.queue  "rate of channel"  ETV
vector 47  Wsn.Sensor_3.queue  "rate of channel"  ETV
vector 52  Wsn.Sensor_4.queue  "rate of channel"  ETV
vector 57  Wsn.Sensor_5.queue  "rate of channel"  ETV
vector 62  Wsn.Sensor_6.queue  "rate of channel"  ETV
vector 67  Wsn.Sensor_7.queue  "rate of channel"  ETV
vector 72  Wsn.Sensor_8.queue  "rate of channel"  ETV
vector 77  Wsn.Sensor_9.queue  "rate of channel"  ETV
vector 82  Wsn.Sensor_10.queue  "rate of channel"  ETV
vector 34  Wsn.Sensor_0.control  time  ETV
vector 35  Wsn.Sensor_0.control  "length of the queue"  ETV
vector 39  Wsn.Sensor_1.control  time  ETV
vector 40  Wsn.Sensor_1.control  "length of the queue"  ETV
vector 44  Wsn.Sensor_2.control  time  ETV
vector 45  Wsn.Sensor_2.control  "length of the queue"  ETV
vector 49  Wsn.Sensor_3.control  time  ETV
vector 50  Wsn.Sensor_3.control  "length of the queue"  ETV
vector 54  Wsn.Sensor_4.control  time  ETV
vector 55  Wsn.Sensor_4.control  "length of the queue"  ETV
vector 59  Wsn.Sensor_5.control  time  ETV
vector 60  Wsn.Sensor_5.control  "length of the queue"  ETV
vector 64  Wsn.Sensor_6.control  time  ETV
vector 65  Wsn.Sensor_6.control  "length of the queue"  ETV
vector 69  Wsn.Sensor_7.control  time  ETV
vector 70  Wsn.Sensor_7.control  "length of the queue"  ETV
vector 74  Wsn.Sensor_8.control  time  ETV
vector 75  Wsn.Sensor_8.control  "length of the queue"  ETV
vector 79  Wsn.Sensor_9.control  time  ETV
vector 80  Wsn.Sensor_9.control  "length of the queue"  ETV
vector 84  Wsn.Sensor_10.control  time  ETV
vector 85  Wsn.Sensor_10.control  "length of the queue"  ETV
vector 83  Wsn.Sensor_10.sr  "energy release"  ETV
vector 16  Wsn.Sink.sr  "energy release"  ETV
vector 15  Wsn.Sink.queue  "rate of channel"  ETV
vector 17  Wsn.Sink.control  time  ETV
vector 18  Wsn.Sink.control  "length of the queue"  ETV
vector 68  Wsn.Sensor_7.sr  "energy release"  ETV
vector 63  Wsn.Sensor_6.sr  "energy release"  ETV
vector 73  Wsn.Sensor_8.sr  "energy release"  ETV
vector 22  Wsn.Sink2.sr  "energy release"  ETV
vector 58  Wsn.Sensor_5.sr  "energy release"  ETV
vector 48  Wsn.Sensor_3.sr  "energy release"  ETV
vector 21  Wsn.Sink2.queue  "rate of channel"  ETV
vector 23  Wsn.Sink2.control  time  ETV
vector 24  Wsn.Sink2.control  "length of the queue"  ETV
vector 78  Wsn.Sensor_9.sr  "energy release"  ETV
vector 38  Wsn.Sensor_1.sr  "energy release"  ETV
vector 28  Wsn.Gateway.sr  "energy release"  ETV
vector 33  Wsn.Sensor_0.sr  "energy release"  ETV
vector 43  Wsn.Sensor_2.sr  "energy release"  ETV
vector 14  Wsn.Sink.ret  num  ETV
vector 53  Wsn.Sensor_4.sr  "energy release"  ETV
vector 26  Wsn.Gateway.ret  num  ETV
vector 27  Wsn.Gateway.queue  "rate of channel"  ETV
vector 20  Wsn.Sink2.ret  num  ETV
14	3342 77899 122 258794 0.302203025706 215.33184888512 2689 1 5 3505 5507
15	81241 393691 38 258805 0.020525866226 215.341519107268 9004 0.77441607164468 1 7039.2715749739 5504.7305326139
16	474932 594237 36 258803 0.020525866226 215.341519107268 17469 -154680 20000 -1176362460 1.236407826834e+014
17	1069169 292863 39 258806 0.020525866226 215.341519107268 6651 0 0.49978119309526 1654.7559255522 550.40302395623
18	1362032 192531 39 258806 0.020525866226 215.341519107268 6651 0 14 28285 139521
20	1554563 147007 198 258773 0.42845605108 215.319308648182 5073 1 4 5828 7456
21	1701570 692425 80 258775 0.202607520777 215.319308648182 15808 0.77721518987342 1 12559.541986424 9979.5348718296
22	2393995 1122241 51 258778 0.045934696021 215.319308648182 32570 -305690 20000 -4652461650 9.525010140645e+014
23	3516236 517061 81 258776 0.202607520777 215.319308648182 11736 0 0.49999968614429 2920.5951965585 971.40759398107
24	4033297 340844 81 258776 0.202607520777 215.319308648182 11736 1 13 82641 622309
26	4374141 125604 180 258720 0.417999667618 215.296491978679 4343 1 5 5661 9141
27	4499745 125604 181 258721 0.417999667618 215.296491978679 4343 1 1 4343 4343
28	4625349 614839 97 258786 0.250405252367 215.326507858497 18062 -160610 20000 -1269848910 1.383806592531e+014
32	5240188 61080 12 258685 0 215.273232333019 1413 0.58959537572254 1 856.39770693543 519.71844955485
33	5301268 49795 102 258810 0.264447460765 215.342225067596 1530 4710 20000 18903150 263394880500
34	5351063 42679 23 258470 0 215.121179577708 970 0.00038735568523407 0.49949227145407 238.32083961426 78.598696275621
35	5393742 28006 23 258470 0 215.121179577708 970 0 3 625 725
37	5421748 63501 13 258663 0 215.256950217865 1461 0.5938864628821 1 894.97804584942 549.72029993626
38	5485249 52480 90 258662 0.239988585701 215.256950217865 1611 3900 20000 19251450 264896998500
39	5537729 45505 24 258289 0 214.959930746026 1034 0 0.4994513199199 261.22421489144 86.945918048736
40	5583234 29905 24 258289 0 214.959930746026 1034 0 3 728 846
42	5613139 66771 14 258801 0 215.334535315316 1535 0.55084745762712 1 885.72309785857 511.91905139216
43	5679910 64623 106 258594 0.284022281877 215.226134950329 1992 90 20000 20009640 266866679600
44	5744533 58842 25 258802 0 215.334535315316 1334 0 0.49902113468852 331.74108145863 110.41641081306
45	5803375 38659 25 258802 0 215.334535315316 1334 0 2 1153 1439
47	5842034 60169 15 258771 0 215.316868349685 1382 0.575 1 857.09931987598 532.36108113967
48	5902203 50391 77 258770 0.196392396581 215.316868349685 1545 4560 20000 18972600 263716462000
49	5952594 44769 26 258710 0 215.292743751827 1017 0 0.49994864314795 256.96417243755 85.739354429142
50	5997363 29441 26 258710 0 215.292743751827 1017 0 3 706 818
52	6026804 66294 16 258758 0 215.311012178492 1525 0.56922043010753 1 889.76775831792 519.81317381519
53	6093098 62889 136 258757 0.311781848198 215.311012178492 1940 610 20000 19991700 266859319000
54	6155987 56672 27 258759 0 215.311012178492 1288 0 0.49990729172714 325.90440162993 108.69809776049
55	6212659 37208 27 258759 0 215.311012178492 1288 0 3 1119 1429
57	6249867 64245 17 258687 0 215.273479074737 1476 0.57851239669421 1 894.20400928959 545.41286359493
58	6314112 58394 75 258808 0.192190854111 215.341832010922 1793 2080 20000 19794720 266568896000
59	6372506 52107 28 258688 0 215.273479074737 1182 0 0.49936580460053 296.16974597378 98.738675585464
60	6424613 34277 28 258688 0 215.273479074737 1182 0 4 953 1219
62	6458890 63551 18 258789 0 215.329725314848 1461 0.56901408450704 1 868.21367421136 517.22699181865
63	6522441 55966 46 258788 0.035518029355 215.329725314848 1722 2790 20000 19622190 266146666100
64	6578407 49268 29 258790 0 215.329725314848 1121 0 0.49997830728535 289.67189212202 98.645114069392
65	6627675 32372 29 258790 0 215.329725314848 1121 0 3 860 1024
67	6660047 66243 19 258665 0 215.259207233894 1523 0.54477611940299 1 876.12364510118 506.08800095343
68	6726290 74045 44 258815 0.028356487862 215.349544708299 2286 -2850 20000 19602450 267642403500
69	6800335 71686 30 258666 0 215.259207233894 1629 0 0.49989370652474 404.20515348413 133.97338167574
70	6872021 47120 30 258666 0 215.259207233894 1629 0 5 1821 2907
72	6919141 67811 20 258812 0 215.342265551786 1561 0.53529411764706 1 883.75604737767 501.52689813018
73	6986952 71209 50 258811 0.043564648483 215.342265551786 2199 -1980 20000 19812990 267127409900
74	7058161 67030 31 258813 0 215.342265551786 1522 0 0.49990072241053 365.54058413219 119.20135250983
75	7125191 44017 31 258813 0 215.342265551786 1522 0 3 1471 2023
77	7169208 68380 21 258612 0 215.236011383668 1573 0.55330634278003 1 899.72855599626 516.53519461182
78	7237588 78538 88 258792 0.238832555827 215.331102440602 2420 -4190 20000 19130100 269327487000
79	7316126 76532 32 258613 0 215.236011383668 1738 0 0.49994986539241 424.59394711792 139.22223073467
80	7392658 50281 32 258613 0 215.236011383668 1738 0 4 1938 2930
82	7442939 66374 22 258698 0 215.284601834991 1526 0.55818540433925 1 873.46381516542 501.08663323079
83	7509313 61925 35 258679 0.01010919956 215.267463148762 1908 930 20000 19967220 266840319000
84	7571238 54633 33 258699 0 215.284601834991 1242 0 0.49998401408084 312.15738187847 104.83434082021
85	7625871 35879 33 258699 0 215.284601834991 1242 0 4 1069 1441
