file 8435488 1434693019                                         
version 2
run General-0-20150619-13:50:08-1968
attr configname General
attr datetime 20150619-13:50:08
attr experiment General
attr inifile omnetpp.ini
attr iterationvars $jobs=1
attr iterationvars2 "$jobs=1, $repetition=0"
attr jobs 1
attr measurement $jobs=1
attr network Wsn
attr processid 1968
attr repetition 0
attr replication #0
attr resultdir results
attr runnumber 0
attr seedset 0

vector 32  Wsn.Sensor_0.queue  "rate of channel"  ETV
vector 37  Wsn.Sensor_1.queue  "rate of channel"  ETV
vector 42  Wsn.Sensor_2.queue  "rate of channel"  ETV
vector 47  Wsn.Sensor_3.queue  "rate of channel"  ETV
vector 52  Wsn.Sensor_4.queue  "rate of channel"  ETV
vector 57  Wsn.Sensor_5.queue  "rate of channel"  ETV
vector 62  Wsn.Sensor_6.queue  "rate of channel"  ETV
vector 67  Wsn.Sensor_7.queue  "rate of channel"  ETV
vector 72  Wsn.Sensor_8.queue  "rate of channel"  ETV
vector 77  Wsn.Sensor_9.queue  "rate of channel"  ETV
vector 82  Wsn.Sensor_10.queue  "rate of channel"  ETV
vector 34  Wsn.Sensor_0.control  time  ETV
vector 35  Wsn.Sensor_0.control  "length of the queue"  ETV
vector 39  Wsn.Sensor_1.control  time  ETV
vector 40  Wsn.Sensor_1.control  "length of the queue"  ETV
vector 44  Wsn.Sensor_2.control  time  ETV
vector 45  Wsn.Sensor_2.control  "length of the queue"  ETV
vector 49  Wsn.Sensor_3.control  time  ETV
vector 50  Wsn.Sensor_3.control  "length of the queue"  ETV
vector 54  Wsn.Sensor_4.control  time  ETV
vector 55  Wsn.Sensor_4.control  "length of the queue"  ETV
vector 59  Wsn.Sensor_5.control  time  ETV
vector 60  Wsn.Sensor_5.control  "length of the queue"  ETV
vector 64  Wsn.Sensor_6.control  time  ETV
vector 65  Wsn.Sensor_6.control  "length of the queue"  ETV
vector 69  Wsn.Sensor_7.control  time  ETV
vector 70  Wsn.Sensor_7.control  "length of the queue"  ETV
vector 74  Wsn.Sensor_8.control  time  ETV
vector 75  Wsn.Sensor_8.control  "length of the queue"  ETV
vector 79  Wsn.Sensor_9.control  time  ETV
vector 80  Wsn.Sensor_9.control  "length of the queue"  ETV
vector 84  Wsn.Sensor_10.control  time  ETV
vector 85  Wsn.Sensor_10.control  "length of the queue"  ETV
vector 83  Wsn.Sensor_10.sr  "energy release"  ETV
vector 16  Wsn.Sink.sr  "energy release"  ETV
vector 15  Wsn.Sink.queue  "rate of channel"  ETV
vector 17  Wsn.Sink.control  time  ETV
vector 18  Wsn.Sink.control  "length of the queue"  ETV
vector 63  Wsn.Sensor_6.sr  "energy release"  ETV
vector 73  Wsn.Sensor_8.sr  "energy release"  ETV
vector 22  Wsn.Sink2.sr  "energy release"  ETV
vector 68  Wsn.Sensor_7.sr  "energy release"  ETV
vector 48  Wsn.Sensor_3.sr  "energy release"  ETV
vector 21  Wsn.Sink2.queue  "rate of channel"  ETV
vector 23  Wsn.Sink2.control  time  ETV
vector 24  Wsn.Sink2.control  "length of the queue"  ETV
vector 38  Wsn.Sensor_1.sr  "energy release"  ETV
vector 28  Wsn.Gateway.sr  "energy release"  ETV
vector 33  Wsn.Sensor_0.sr  "energy release"  ETV
vector 43  Wsn.Sensor_2.sr  "energy release"  ETV
vector 78  Wsn.Sensor_9.sr  "energy release"  ETV
vector 58  Wsn.Sensor_5.sr  "energy release"  ETV
vector 26  Wsn.Gateway.ret  num  ETV
vector 27  Wsn.Gateway.queue  "rate of channel"  ETV
vector 20  Wsn.Sink2.ret  num  ETV
vector 53  Wsn.Sensor_4.sr  "energy release"  ETV
vector 14  Wsn.Sink.ret  num  ETV
14	3342 92448 191 282061 0.603033469678 465.702663367293 3159 1 4 3651 4715
15	95790 431961 38 282063 0.020525866226 465.702663367293 9807 0.71794871794872 1 7627.1030750118 5932.5959183766
16	527751 640824 36 282100 0.020525866226 465.716177620139 18647 -166460 20000 -1365519810 1.540283465811e+014
17	1168575 306644 39 282064 0.020525866226 465.702663367293 6919 0 0.49999741069041 1736.3517285535 577.11276748014
18	1475219 202249 39 282064 0.020525866226 465.702663367293 6919 0 6 14934 40194
20	1677468 161960 136 282102 0.42845605108 465.720152011015 5528 1 3 6165 7469
21	1839428 775117 69 282110 0.206809063247 465.721329783541 17564 0.75 1 13487.052799821 10357.043800501
22	2614545 1247682 44 282108 0.045934696021 465.721329783541 35827 -338260 20000 -5701150510 1.2904457733101e+015
23	3862227 573477 70 282111 0.206809063247 465.721329783541 12916 0 0.49998200882692 3203.8359774053 1063.812199428
24	4435704 378275 70 282111 0.206809063247 465.721329783541 12916 0 11 48416 208488
26	4813979 153175 123 282081 0.405215041555 465.710913116875 5231 1 6 6346 8978
27	4967154 153175 124 282082 0.405215041555 465.710913116875 5231 1 1 5231 5231
28	5120329 694601 73 282084 0.250405252367 465.710913116875 20149 -181480 20000 -1626830260 1.995180697574e+014
32	5814930 63602 12 281750 0 465.223792760377 1452 0.60817307692308 1 911.51302085806 573.60954406587
33	5878532 49881 76 281749 0.264447460765 465.223792760377 1513 4880 20000 18821720 263004790000
34	5928413 42010 23 281719 0 465.185244540469 949 0 0.49994864314795 239.32246853306 79.943762605984
35	5970423 27774 23 281719 0 465.185244540469 949 0 2 258 274
37	5998197 66718 13 281951 0 465.57056912291 1526 0.55882352941176 1 936.7115924529 575.91737605368
38	6064915 54560 72 281644 0.239988585701 465.046463551311 1661 3400 20000 19433700 265562341000
39	6119475 47113 24 281952 0 465.57056912291 1064 0 0.49991689610761 268.58930809656 90.687425902776
40	6166588 31088 24 281952 0 465.57056912291 1064 0 2 348 362
42	6197676 71796 14 281926 0 465.481108636826 1642 0.5609756097561 1 978.48025260229 584.37667238485
43	6269472 65197 83 281669 0.284022281877 465.074269900754 1993 80 20000 20009720 266866686000
44	6334669 57312 25 281927 0 465.481108636826 1293 0 0.49900080484804 334.59514233947 113.03828670697
45	6391981 37812 25 281927 0 465.481108636826 1293 0 3 539 599
47	6429793 76806 15 281978 0 465.593749438943 1751 0.54448871181939 1 1004.2814027859 578.46716292004
48	6506599 75734 66 281977 0.196392396581 465.593749438943 2309 -3080 20000 19534140 267845385400
49	6582333 67348 26 281979 0 465.593749438943 1516 0 0.49977517686784 384.66768029856 130.08466023224
50	6649681 44447 26 281979 0 465.593749438943 1516 0 3 736 822
52	6694128 66506 16 281942 0 465.538744652656 1517 0.57575757575758 1 929.26221664054 569.98270502496
53	6760634 57611 152 281657 0.462798316613 465.059774559312 1756 2450 20000 19711100 266379493000
54	6818245 51175 27 281943 0 465.538744652656 1154 0 0.49998547474388 273.29688849882 88.58924837129
55	6869420 33711 27 281943 0 465.538744652656 1154 0 2 380 410
57	6903131 69079 17 282003 0 465.657460835543 1573 0.57597173144876 1 955.07797444132 581.75283635856
58	6972210 61560 115 281516 0.384381708223 464.86248570682 1873 1280 20000 19928720 266797612000
59	7033770 54066 28 282004 0 465.657460835543 1218 0 0.49842101556715 298.37539945275 98.918844107434
60	7087836 35683 28 282004 0 465.657460835543 1218 0 2 418 432
62	7123519 69370 18 282077 0 465.707400719241 1582 0.55172413793103 1 999.85484408729 634.21169845835
63	7192889 61817 41 282076 0.035518029355 465.707400719241 1880 1210 20000 19937400 266808378000
64	7254706 54866 29 281949 0 465.564850024642 1235 0 0.49896221468225 305.44078552152 102.36059699956
65	7309572 36201 29 281949 0 465.564850024642 1235 0 2 488 510
67	7345773 76065 19 282088 0 465.713080033959 1734 0.51360544217687 1 931.20991408521 501.39667223832
68	7421838 82799 52 282087 0.056712975725 465.713080033959 2529 -5280 20000 18613440 271787246400
69	7504637 76077 30 282089 0 465.713080033959 1717 0 0.49997014587279 425.96711520758 141.0950410651
70	7580714 50159 30 282089 0 465.713080033959 1717 0 3 977 1165
72	7630873 76950 20 281994 0 465.643438546978 1754 0.52688172043011 1 973.01269116314 540.94315329587
73	7707823 79000 43 282086 0.043564648483 465.711718877837 2406 -4050 20000 19187850 269089245500
74	7786823 71159 31 281996 0 465.643438546978 1600 0.00032801809720695 0.49965850089211 409.64557152044 139.79590109875
75	7857982 46956 31 281996 0 465.643438546978 1600 0 3 885 1083
77	7904938 76447 21 282058 0 465.701291441989 1742 0.52066115702479 1 944.84946232257 514.47472192373
78	7981385 83137 96 282057 0.324085938278 465.701291441989 2540 -5390 20000 18554700 272100929000
79	8064522 76526 32 282059 0 465.701291441989 1727 0.00035763846244663 0.49965996854007 435.65683030977 145.30394220297
80	8141048 50413 32 282059 0 465.701291441989 1727 0 3 990 1168
82	8191461 71416 22 281906 0 465.442763410251 1630 0.53030303030303 1 896.38400265275 494.17914735003
83	8262877 69469 35 281905 0.01010919956 465.442763410251 2132 -1310 20000 19923540 266942496600
84	8332346 62188 33 281704 0 465.132275640282 1407 1.0014977306128e-005 0.49996311892755 353.90407859557 117.51425103588
85	8394534 40954 33 281704 0 465.132275640282 1407 0 2 657 747
