file 7982804 1433402498                                         
version 2
run General-1-20150604-15:21:27-9700
attr configname General
attr datetime 20150604-15:21:27
attr experiment General
attr inifile omnetpp.ini
attr iterationvars $jobs=0
attr iterationvars2 "$jobs=0, $repetition=0"
attr jobs 0
attr measurement $jobs=0
attr network Wsn
attr processid 9700
attr repetition 0
attr replication #0
attr resultdir results
attr runnumber 1
attr seedset 1

vector 32  Wsn.Sensor_0.queue  "rate of channel"  ETV
vector 37  Wsn.Sensor_1.queue  "rate of channel"  ETV
vector 42  Wsn.Sensor_2.queue  "rate of channel"  ETV
vector 47  Wsn.Sensor_3.queue  "rate of channel"  ETV
vector 52  Wsn.Sensor_4.queue  "rate of channel"  ETV
vector 57  Wsn.Sensor_5.queue  "rate of channel"  ETV
vector 62  Wsn.Sensor_6.queue  "rate of channel"  ETV
vector 67  Wsn.Sensor_7.queue  "rate of channel"  ETV
vector 72  Wsn.Sensor_8.queue  "rate of channel"  ETV
vector 77  Wsn.Sensor_9.queue  "rate of channel"  ETV
vector 82  Wsn.Sensor_10.queue  "rate of channel"  ETV
vector 34  Wsn.Sensor_0.control  time  ETV
vector 35  Wsn.Sensor_0.control  "length of the queue"  ETV
vector 39  Wsn.Sensor_1.control  time  ETV
vector 40  Wsn.Sensor_1.control  "length of the queue"  ETV
vector 44  Wsn.Sensor_2.control  time  ETV
vector 45  Wsn.Sensor_2.control  "length of the queue"  ETV
vector 49  Wsn.Sensor_3.control  time  ETV
vector 50  Wsn.Sensor_3.control  "length of the queue"  ETV
vector 54  Wsn.Sensor_4.control  time  ETV
vector 55  Wsn.Sensor_4.control  "length of the queue"  ETV
vector 59  Wsn.Sensor_5.control  time  ETV
vector 60  Wsn.Sensor_5.control  "length of the queue"  ETV
vector 64  Wsn.Sensor_6.control  time  ETV
vector 65  Wsn.Sensor_6.control  "length of the queue"  ETV
vector 69  Wsn.Sensor_7.control  time  ETV
vector 70  Wsn.Sensor_7.control  "length of the queue"  ETV
vector 74  Wsn.Sensor_8.control  time  ETV
vector 75  Wsn.Sensor_8.control  "length of the queue"  ETV
vector 79  Wsn.Sensor_9.control  time  ETV
vector 80  Wsn.Sensor_9.control  "length of the queue"  ETV
vector 84  Wsn.Sensor_10.control  time  ETV
vector 85  Wsn.Sensor_10.control  "length of the queue"  ETV
vector 63  Wsn.Sensor_6.sr  "energy release"  ETV
vector 22  Wsn.Sink2.sr  "energy release"  ETV
vector 21  Wsn.Sink2.queue  "rate of channel"  ETV
vector 23  Wsn.Sink2.control  time  ETV
vector 24  Wsn.Sink2.control  "length of the queue"  ETV
vector 43  Wsn.Sensor_2.sr  "energy release"  ETV
vector 28  Wsn.Gateway.sr  "energy release"  ETV
vector 58  Wsn.Sensor_5.sr  "energy release"  ETV
vector 53  Wsn.Sensor_4.sr  "energy release"  ETV
vector 83  Wsn.Sensor_10.sr  "energy release"  ETV
vector 16  Wsn.Sink.sr  "energy release"  ETV
vector 15  Wsn.Sink.queue  "rate of channel"  ETV
vector 17  Wsn.Sink.control  time  ETV
vector 18  Wsn.Sink.control  "length of the queue"  ETV
vector 48  Wsn.Sensor_3.sr  "energy release"  ETV
vector 38  Wsn.Sensor_1.sr  "energy release"  ETV
vector 68  Wsn.Sensor_7.sr  "energy release"  ETV
vector 20  Wsn.Sink2.ret  num  ETV
vector 26  Wsn.Gateway.ret  num  ETV
vector 27  Wsn.Gateway.queue  "rate of channel"  ETV
vector 73  Wsn.Sensor_8.sr  "energy release"  ETV
vector 33  Wsn.Sensor_0.sr  "energy release"  ETV
vector 78  Wsn.Sensor_9.sr  "energy release"  ETV
vector 14  Wsn.Sink.ret  num  ETV
14	3342 83911 331 269134 0.579908949244 224.619895558623 2894 1 5 3614 5302
15	87253 412794 84 269295 0.167053423161 224.723028196614 9434 0.75 1 7362.5955747825 5746.3281728358
16	500047 621169 82 269311 0.167053423161 224.739008873515 18235 -162340 20000 -1297784950 1.428918141385e+014
17	1121216 302646 85 269296 0.167053423161 224.723028196614 6872 0 0.49999514233787 1728.4001556362 579.61387529881
18	1423862 198871 85 269296 0.167053423161 224.723028196614 6872 0 10 28784 137542
20	1622733 151799 144 269300 0.285173247139 224.728592206849 5236 1 4 6051 7791
21	1774532 719498 38 269302 0.02411046465 224.728592206849 16455 0.79444444444444 1 13141.34036452 10495.904160328
22	2494030 1169654 36 269305 0.02411046465 224.728592206849 33902 -319010 20000 -5068518510 1.0824781484451e+015
23	3663684 542039 39 269303 0.02411046465 224.728592206849 12297 0 0.49996208806988 3083.0615024989 1028.215539301
24	4205723 357697 39 269303 0.02411046465 224.728592206849 12297 0 15 87732 672234
26	4563420 130414 167 269267 0.313872044982 224.708789677216 4495 1 7 5909 9805
27	4693834 130414 168 269268 0.313872044982 224.708789677216 4495 1 1 4495 4495
28	4824248 641186 51 269285 0.084895557218 224.716777728044 18786 -167850 20000 -1388755050 1.579123716785e+014
32	5465434 61525 12 269203 0 224.6733204924 1413 0.58333333333333 1 889.95565098905 561.41844622683
33	5526959 49132 181 269132 0.342609750339 224.619615212219 1501 5000 20000 18762500 262712525000
34	5576091 42363 23 269204 0 224.6733204924 963 0 0.49988844012842 239.84860188211 80.074746716217
35	5618454 27965 23 269204 0 224.6733204924 963 0 2 606 664
37	5646419 64916 13 269251 0 224.690238956712 1489 0.58986486486486 1 911.83122648906 559.24308878255
38	5711335 54299 121 269250 0.262274081353 224.690238956712 1663 3380 20000 19440470 265585257500
39	5765634 46498 24 269180 0 224.65382519869 1054 0.00012405519373715 0.49974511761684 265.34408233222 88.519903052076
40	5812132 30573 24 269180 0 224.65382519869 1054 0 2 727 827
42	5842705 65521 14 269148 0 224.627286776772 1507 0.5625 1 872.16399550278 505.77135380297
43	5908226 57102 44 269307 0.064062223886 224.731993659196 1759 2420 20000 19718390 266397207900
44	5965328 49684 25 269072 0 224.588380191271 1130 0 0.49973206256982 281.02772091178 94.31647463767
45	6015012 32608 25 269072 0 224.588380191271 1130 0 3 830 978
47	6047620 63939 15 269153 0 224.629165786342 1467 0.52173913043478 1 891.90035176306 542.99190514515
48	6111559 55225 101 269149 0.221726446878 224.62895618098 1692 3090 20000 19534140 265888014600
49	6166784 49405 26 269154 0 224.629165786342 1119 0 0.49924610054586 285.3735356807 95.947708236143
50	6216189 32530 26 269154 0 224.629165786342 1119 0 4 839 1037
52	6248719 64863 16 269176 0 224.652727022777 1496 0.57594936708861 1 913.51755946093 559.39457104848
53	6313582 56867 63 269068 0.118044488131 224.580968992406 1747 2540 20000 19688690 266323686100
54	6370449 50926 27 269177 0 224.652727022777 1157 0 0.49917888187338 286.58574080491 95.605026541263
55	6421375 33480 27 269177 0 224.652727022777 1157 0 2 860 1026
57	6454855 69504 17 269298 0 224.724742973488 1594 0.56813417190776 1 933.97643116547 548.04098005595
58	6524359 67354 58 269297 0.114788610022 224.724742973488 2076 -750 20000 19981500 266881045000
59	6591713 61946 28 269238 0 224.685284483901 1405 0.00016420905012637 0.49991947098169 351.68936975917 115.5017830522
60	6653659 40754 28 269238 0 224.685284483901 1405 0 3 1213 1523
62	6694413 69330 18 269309 0 224.738141059889 1595 0.56851119894598 1 941.35039201338 556.90021907626
63	6763743 66790 35 268926 0.013693797984 224.465650452314 2057 -560 20000 19994040 266872711600
64	6830533 60717 29 269310 0 224.738141059889 1376 0 0.49956726375967 352.5440165922 119.78663309482
65	6891250 39923 29 269310 0 224.738141059889 1376 0 3 1230 1590
67	6931173 71425 19 269230 0 224.680377910857 1643 0.53861386138614 1 916.69070643528 513.430446419
68	7002598 77752 129 268856 0.267206953605 224.400954827912 2397 -3960 20000 19223940 268944518600
69	7080350 72872 30 269231 0 224.680377910857 1655 0 0.49932150437962 406.93309587846 134.97477597001
70	7153222 47867 30 269231 0 224.680377910857 1655 0 3 1700 2428
72	7201089 70925 20 269162 0 224.630312225289 1626 0.52941176470588 1 917.0845208283 517.93527320913
73	7272014 67444 179 269161 0.335233753779 224.630312225289 2078 -770 20000 19979970 266882215500
74	7339458 59898 31 269164 0 224.630312225289 1358 0.00011747435200959 0.49993126140907 338.34958948917 112.34524216168
75	7399356 39396 31 269164 0 224.630312225289 1358 0 3 1191 1527
77	7438752 70344 21 269213 0 224.676296119113 1617 0.55 1 920.70950943103 525.93367488749
78	7509096 74501 226 268798 0.423155459109 224.347290970618 2296 -2950 20000 19573400 267726802000
79	7583597 69687 32 269214 0 224.676296119113 1582 0 0.49972757708747 395.5048259605 132.65067303323
80	7653284 45792 32 269214 0 224.676296119113 1582 0 3 1599 2235
82	7699076 70548 22 269182 0 224.65619312951 1623 0.55379188712522 1 926.02286915015 530.00448529884
83	7769624 81594 81 268988 0.156636756495 224.499336999051 2514 -5130 20000 18691590 271380056900
84	7851218 79415 33 269183 0 224.65619312951 1804 0 0.4996169807855 443.24753893109 145.82368553541
85	7930633 52171 33 269183 0 224.65619312951 1804 0 4 1982 2950
