file 8173192 1434693032                                         
version 2
run General-1-20150619-13:50:21-8916
attr configname General
attr datetime 20150619-13:50:21
attr experiment General
attr inifile omnetpp.ini
attr iterationvars $jobs=0
attr iterationvars2 "$jobs=0, $repetition=0"
attr jobs 0
attr measurement $jobs=0
attr network Wsn
attr processid 8916
attr repetition 0
attr replication #0
attr resultdir results
attr runnumber 1
attr seedset 1

vector 32  Wsn.Sensor_0.queue  "rate of channel"  ETV
vector 37  Wsn.Sensor_1.queue  "rate of channel"  ETV
vector 42  Wsn.Sensor_2.queue  "rate of channel"  ETV
vector 47  Wsn.Sensor_3.queue  "rate of channel"  ETV
vector 52  Wsn.Sensor_4.queue  "rate of channel"  ETV
vector 57  Wsn.Sensor_5.queue  "rate of channel"  ETV
vector 62  Wsn.Sensor_6.queue  "rate of channel"  ETV
vector 67  Wsn.Sensor_7.queue  "rate of channel"  ETV
vector 72  Wsn.Sensor_8.queue  "rate of channel"  ETV
vector 77  Wsn.Sensor_9.queue  "rate of channel"  ETV
vector 82  Wsn.Sensor_10.queue  "rate of channel"  ETV
vector 34  Wsn.Sensor_0.control  time  ETV
vector 35  Wsn.Sensor_0.control  "length of the queue"  ETV
vector 39  Wsn.Sensor_1.control  time  ETV
vector 40  Wsn.Sensor_1.control  "length of the queue"  ETV
vector 44  Wsn.Sensor_2.control  time  ETV
vector 45  Wsn.Sensor_2.control  "length of the queue"  ETV
vector 49  Wsn.Sensor_3.control  time  ETV
vector 50  Wsn.Sensor_3.control  "length of the queue"  ETV
vector 54  Wsn.Sensor_4.control  time  ETV
vector 55  Wsn.Sensor_4.control  "length of the queue"  ETV
vector 59  Wsn.Sensor_5.control  time  ETV
vector 60  Wsn.Sensor_5.control  "length of the queue"  ETV
vector 64  Wsn.Sensor_6.control  time  ETV
vector 65  Wsn.Sensor_6.control  "length of the queue"  ETV
vector 69  Wsn.Sensor_7.control  time  ETV
vector 70  Wsn.Sensor_7.control  "length of the queue"  ETV
vector 74  Wsn.Sensor_8.control  time  ETV
vector 75  Wsn.Sensor_8.control  "length of the queue"  ETV
vector 79  Wsn.Sensor_9.control  time  ETV
vector 80  Wsn.Sensor_9.control  "length of the queue"  ETV
vector 84  Wsn.Sensor_10.control  time  ETV
vector 85  Wsn.Sensor_10.control  "length of the queue"  ETV
vector 63  Wsn.Sensor_6.sr  "energy release"  ETV
vector 22  Wsn.Sink2.sr  "energy release"  ETV
vector 21  Wsn.Sink2.queue  "rate of channel"  ETV
vector 23  Wsn.Sink2.control  time  ETV
vector 24  Wsn.Sink2.control  "length of the queue"  ETV
vector 43  Wsn.Sensor_2.sr  "energy release"  ETV
vector 58  Wsn.Sensor_5.sr  "energy release"  ETV
vector 28  Wsn.Gateway.sr  "energy release"  ETV
vector 83  Wsn.Sensor_10.sr  "energy release"  ETV
vector 16  Wsn.Sink.sr  "energy release"  ETV
vector 15  Wsn.Sink.queue  "rate of channel"  ETV
vector 17  Wsn.Sink.control  time  ETV
vector 18  Wsn.Sink.control  "length of the queue"  ETV
vector 48  Wsn.Sensor_3.sr  "energy release"  ETV
vector 53  Wsn.Sensor_4.sr  "energy release"  ETV
vector 38  Wsn.Sensor_1.sr  "energy release"  ETV
vector 68  Wsn.Sensor_7.sr  "energy release"  ETV
vector 73  Wsn.Sensor_8.sr  "energy release"  ETV
vector 33  Wsn.Sensor_0.sr  "energy release"  ETV
vector 26  Wsn.Gateway.ret  num  ETV
vector 27  Wsn.Gateway.queue  "rate of channel"  ETV
vector 20  Wsn.Sink2.ret  num  ETV
vector 78  Wsn.Sensor_9.sr  "energy release"  ETV
vector 14  Wsn.Sink.ret  num  ETV
14	3342 89647 286 273560 0.802634945642 455.131904354126 3060 1 4 3464 4330
15	92989 414010 67 273562 0.219069068823 455.131904354126 9403 0.72549019607843 1 7295.5210842136 5661.8066687436
16	506999 613753 65 273603 0.219069068823 455.179362183563 17880 -158790 20000 -1240782600 1.33738573978e+014
17	1120752 295333 68 273563 0.219069068823 455.131904354126 6663 0 0.49976968567353 1666.3958578922 554.69752544704
18	1416085 194689 68 273563 0.219069068823 455.131904354126 6663 0 6 14394 38840
20	1610774 156638 151 273643 0.44947538517 455.221829742711 5357 1 4 6027 7431
21	1767412 753141 38 273645 0.02411046465 455.221829742711 17090 0.73863636363636 1 13164.569734088 10141.636192044
22	2520553 1207750 36 273658 0.02411046465 455.235773557719 34745 -327440 20000 -5341001400 1.170557785282e+015
23	3728303 556353 39 273646 0.02411046465 455.221829742711 12551 0 0.49991947098169 3146.3213192277 1052.6019612166
24	4284656 366766 39 273646 0.02411046465 455.221829742711 12551 0 11 47191 203333
26	4651422 148265 146 273660 0.446405818566 455.246190224385 5072 1 6 6102 8536
27	4799687 148265 147 273661 0.446405818566 455.246190224385 5072 1 1 5072 5072
28	4947952 675509 50 273663 0.123059457826 455.246190224385 19637 -176360 20000 -1535220660 1.831257036006e+014
32	5623461 66567 12 273410 0 454.987788272346 1525 0.57142857142857 1 910.36599715954 544.02335079231
33	5690028 55639 128 273505 0.342609750339 455.071392260049 1692 3090 20000 19534140 265888014600
34	5745667 47312 23 273411 0 454.987788272346 1066 3.1159841455519e-005 0.49958127236459 265.37656854989 88.343787188367
35	5792979 31209 23 273411 0 454.987788272346 1066 0 2 326 336
37	5824188 61063 13 273655 0 455.232485248976 1399 0.57142857142857 1 878.76938378215 552.411987444
38	5885251 48783 93 273356 0.262274081353 454.885092657288 1481 5200 20000 18660600 262193278000
39	5934034 42517 24 273656 0 455.232485248976 959 0.00056267820764333 0.49926505098119 237.78048426355 78.993748547701
40	5976551 28022 24 273656 0 455.232485248976 959 0 2 255 257
42	6004573 71120 14 273650 0 455.222377374616 1624 0.56755089450956 1 954.51446590378 562.03264529536
43	6075693 65391 41 273649 0.102226124494 455.222377374616 1998 30 20000 20009970 266866699500
44	6141084 57657 25 273651 0 455.222377374616 1300 0.00057075032964349 0.49996120901778 326.7256139745 109.09643923375
45	6198741 38009 25 273651 0 455.222377374616 1300 0 2 534 566
47	6236750 61989 15 273653 0 455.232246409377 1420 0.54545454545455 1 889.03642425522 557.09218769072
48	6298739 49826 70 273652 0.221726446878 455.232246409377 1514 4870 20000 18826590 263028506900
49	6348565 43449 26 273458 0 455.03451637374 981 0 0.49953484220896 249.46788056649 83.748727445929
50	6392014 28679 26 273458 0 455.03451637374 981 0 2 293 309
52	6420693 73686 16 273507 0 455.071511704948 1681 0.54952830188679 1 958.57892774444 548.0583613084
53	6494379 70673 81 273494 0.236088976263 455.063205121285 2163 -1620 20000 19877970 267009732500
54	6565052 62636 27 273508 0 455.071511704948 1413 0 0.49992558942176 346.7735985287 114.18785394754
55	6627688 41292 27 273508 0 455.071511704948 1413 0 2 659 727
57	6668980 66550 17 273418 0 454.993913818718 1519 0.54545454545455 1 906.59935668021 541.74863144454
58	6735530 57617 49 273417 0.114788610022 454.993913818718 1756 2450 20000 19711100 266379493000
59	6793147 50622 28 273419 0 454.993913818718 1143 0.00048019841779023 0.49871779012028 284.48925072444 93.712419177333
60	6843769 33373 28 273419 0 454.993913818718 1143 0 2 409 417
62	6877142 72288 18 273398 0 454.979810978298 1651 0.53436807095344 1 931.37729249028 526.42470833198
63	6949430 70998 35 273145 0.013693797984 454.634613071773 2173 -1720 20000 19861220 267037797000
64	7020428 63777 29 273399 0 454.979810978298 1439 0 0.49984658742324 351.9780033764 116.53707498972
65	7084205 42042 29 273399 0 454.979810978298 1439 0 2 672 698
67	7126247 74619 19 273351 0 454.878826105767 1704 0.52935118434604 1 948.62809153435 530.61613675058
68	7200866 73349 97 273590 0.267206953605 455.165681905495 2240 -2390 20000 19723200 267324624000
69	7274215 63961 30 273352 0 454.878826105767 1442 0 0.49978029821068 367.51136157988 123.75691478763
70	7338176 42180 30 273352 0 454.878826105767 1442 0 2 662 700
72	7380356 68265 20 273572 0 455.137658582283 1561 0.55710955710956 1 901.74573744485 522.19173267631
73	7448621 61487 122 273571 0.335233753779 455.137658582283 1873 1280 20000 19928720 266797612000
74	7510108 52762 31 273298 0 454.797007015462 1190 0 0.49977407429833 300.12086308084 100.66808247471
75	7562870 34805 31 273298 0 454.797007015462 1190 0 2 435 449
77	7597675 75215 21 273574 0 455.142321020792 1716 0.53370786516854 1 955.46918854206 534.07784293201
78	7672890 80825 162 273573 0.4569810112 455.142321020792 2469 -4680 20000 18912540 270294433400
79	7753715 74167 32 273575 0 455.142321020792 1674 0 0.49962052504998 412.41381864052 137.67143330198
80	7827882 48891 32 273575 0 455.142321020792 1674 0 2 897 1011
82	7876773 75474 22 273512 0 455.079439357745 1723 0.52290076335878 1 951.06754072782 526.33980456523
83	7952247 85779 64 273511 0.208652402157 455.079439357745 2620 -6190 20000 18091100 274791757000
84	8038026 81493 33 273414 0 454.987972608076 1839 0.00015569292008877 0.49984329100698 452.07904370595 149.41856685385
85	8119519 53673 33 273414 0 454.987972608076 1839 0 3 1041 1145
