file 158335 1433133958                                          
version 2
run General-0-20150601-11:56:34-5916
attr configname General
attr datetime 20150601-11:56:34
attr experiment General
attr inifile omnetpp.ini
attr iterationvars ""
attr iterationvars2 $repetition=0
attr measurement ""
attr network Wsn
attr processid 5916
attr repetition 0
attr replication #0
attr resultdir results
attr runnumber 0
attr seedset 0

vector 26  Wsn.Sensor_0.queue  "rate of channel"  ETV
vector 29  Wsn.Sensor_1.queue  "rate of channel"  ETV
vector 32  Wsn.Sensor_2.queue  "rate of channel"  ETV
vector 35  Wsn.Sensor_3.queue  "rate of channel"  ETV
vector 38  Wsn.Sensor_4.queue  "rate of channel"  ETV
vector 41  Wsn.Sensor_5.queue  "rate of channel"  ETV
vector 44  Wsn.Sensor_6.queue  "rate of channel"  ETV
vector 47  Wsn.Sensor_7.queue  "rate of channel"  ETV
vector 50  Wsn.Sensor_8.queue  "rate of channel"  ETV
vector 53  Wsn.Sensor_9.queue  "rate of channel"  ETV
vector 56  Wsn.Sensor_10.queue  "rate of channel"  ETV
vector 27  Wsn.Sensor_0.control  time  ETV
vector 28  Wsn.Sensor_0.control  "length of the queue"  ETV
vector 30  Wsn.Sensor_1.control  time  ETV
vector 31  Wsn.Sensor_1.control  "length of the queue"  ETV
vector 33  Wsn.Sensor_2.control  time  ETV
vector 34  Wsn.Sensor_2.control  "length of the queue"  ETV
vector 36  Wsn.Sensor_3.control  time  ETV
vector 37  Wsn.Sensor_3.control  "length of the queue"  ETV
vector 39  Wsn.Sensor_4.control  time  ETV
vector 40  Wsn.Sensor_4.control  "length of the queue"  ETV
vector 42  Wsn.Sensor_5.control  time  ETV
vector 43  Wsn.Sensor_5.control  "length of the queue"  ETV
vector 45  Wsn.Sensor_6.control  time  ETV
vector 46  Wsn.Sensor_6.control  "length of the queue"  ETV
vector 48  Wsn.Sensor_7.control  time  ETV
vector 49  Wsn.Sensor_7.control  "length of the queue"  ETV
vector 51  Wsn.Sensor_8.control  time  ETV
vector 52  Wsn.Sensor_8.control  "length of the queue"  ETV
vector 54  Wsn.Sensor_9.control  time  ETV
vector 55  Wsn.Sensor_9.control  "length of the queue"  ETV
vector 57  Wsn.Sensor_10.control  time  ETV
vector 58  Wsn.Sensor_10.control  "length of the queue"  ETV
vector 15  Wsn.Sink.queue  "rate of channel"  ETV
vector 16  Wsn.Sink.control  time  ETV
vector 17  Wsn.Sink.control  "length of the queue"  ETV
vector 19  Wsn.Sink2.queue  "rate of channel"  ETV
vector 20  Wsn.Sink2.control  time  ETV
vector 21  Wsn.Sink2.control  "length of the queue"  ETV
vector 23  Wsn.Gateway.queue  "rate of channel"  ETV
15	2492 11342 45 11174 0.12428089912 21.837810404279 285 0.86 1 253.13272164494 225.11150130308
16	13834 11998 46 11175 0.12428089912 21.837810404279 394 0.001 0.001 0.394 0.000394
17	25832 10422 46 11175 0.12428089912 21.837810404279 394 1 1 394 394
19	36254 22326 49 11191 0.17509855871 21.875905725786 554 0.86354378818737 1 490.08019117352 434.0188510439
20	58580 20000 50 11192 0.17509855871 21.875905725786 656 0.001 0.001 0.656 0.00065600000000001
21	78580 17376 50 11192 0.17509855871 21.875905725786 656 1 1 656 656
23	95956 2418 300 11019 1.398931838627 21.550871831976 91 1 1 91 91
26	98374 1561 12 10980 0 21.496280085278 42 0.75 1 35.56827520247 30.220805554551
27	99935 1076 23 10981 0 21.496280085278 36 0.001 0.001 0.036 3.6e-005
28	101011 932 23 10981 0 21.496280085278 36 1 1 36 36
29	101943 2066 13 10933 0 21.438932389933 54 0.75 1 45.763929095823 38.881767834979
30	104009 1538 24 10934 0 21.438932389933 51 0.001 0.001 0.051 5.1e-005
31	105547 1334 24 10934 0 21.438932389933 51 1 1 51 51
32	106881 1909 14 11096 0 21.664435372435 51 0.8 1 44.617991556333 39.130566769374
33	108790 1991 25 11097 0 21.664435372435 66 0.001 0.001 0.066 6.6e-005
34	110781 1727 25 11097 0 21.664435372435 66 1 1 66 66
35	112508 1927 15 11069 0 21.651410986062 51 0.75 1 43.866190831908 37.817810518276
36	114435 1721 26 11074 0 21.651410986062 57 0.001 0.001 0.057 5.7e-005
37	116156 1493 26 11074 0 21.651410986062 57 1 1 57 57
38	117649 1986 16 11127 0 21.739860826495 52 0.66666666666667 1 43.616302275407 36.688583558886
39	119635 1714 27 11128 0 21.739860826495 57 0.001 0.001 0.057 5.7e-005
40	121349 1486 27 11128 0 21.739860826495 57 1 1 57 57
41	122835 1971 17 11179 0 21.84954353862 52 0.75 1 44.528153505234 38.223422860542
42	124806 1654 28 11180 0 21.84954353862 55 0.001 0.001 0.055 5.5e-005
43	126460 1434 28 11180 0 21.84954353862 55 1 1 55 55
44	127894 1805 18 10954 0 21.474823833655 48 0.75 1 41.617947893217 36.172143441307
45	129699 1659 29 10955 0 21.474823833655 55 0.001 0.001 0.055 5.5e-005
46	131358 1439 29 10955 0 21.474823833655 55 1 1 55 55
47	132797 1796 19 11090 0 21.661048779818 49 0.84615384615385 1 43.887034928471 39.409939079089
48	134593 2437 30 11094 0 21.661048779818 81 0.001 0.001 0.081 8.1e-005
49	137030 2113 30 11094 0 21.661048779818 81 1 1 81 81
50	139143 1900 20 11164 0 21.833534692394 50 0.75 1 42.391551787209 36.035654905315
51	141043 1991 31 11165 0 21.833534692394 66 0.001 0.001 0.066 6.6e-005
52	143034 1727 31 11165 0 21.833534692394 66 1 1 66 66
53	144761 2306 21 11066 0 21.640257364583 60 0.75 1 50.962295878987 43.399007624417
54	147067 3173 32 11067 0 21.640257364583 105 0.001 0.001 0.105 0.000105
55	150240 2753 32 11067 0 21.640257364583 105 1 1 105 105
56	152993 1932 22 11052 0 21.619583478408 51 0.66666666666667 1 42.938575628829 36.255580687674
57	154925 1827 33 11053 0 21.619583478408 61 0.001 0.001 0.061 6.1e-005
58	156752 1583 33 11053 0 21.619583478408 61 1 1 61 61
