version 2
run General-0-20150511-22:05:00-4440
attr configname General
attr datetime 20150511-22:05:00
attr experiment General
attr inifile omnetpp.ini
attr iterationvars $jobs=1
attr iterationvars2 "$jobs=1, $repetition=0"
attr jobs 1
attr measurement $jobs=1
attr network Wsn
attr processid 4440
attr repetition 0
attr replication #0
attr resultdir results
attr runnumber 0
attr seedset 0

vector 7  Wsn.node[0].queue  "rate of channel"  ETV
vector 8  Wsn.node[1].queue  "rate of channel"  ETV
vector 9  Wsn.node[2].queue  "rate of channel"  ETV
vector 10  Wsn.node[3].queue  "rate of channel"  ETV
vector 11  Wsn.node[4].queue  "rate of channel"  ETV
7	6	0	1
7	17	0.592844616388	1
7	38	0.977226324611	1
7	47	1.370011117773	1
7	68	2.01818299433	1
7	74	2.538660474817	1
7	98	3.259293126404	1
7	104	3.475843483112	1
7	122	3.799984487234	1
7	137	4.413047949079	1
7	143	4.583957535208	1
7	164	5.334643674076	1
7	176	5.969702551134	1
7	191	6.444400056257	1
7	209	7.222745537982	1
7	242	8.194690536931	1
7	260	9.075166430082	1
7	284	9.991889386661	1
7	293	10.256619550976	1
7	299	10.421560011561	1
7	308	10.568001774827	1
7	317	10.856478207267	1
7	326	11.252576485497	1
7	350	12.144130916322	1
7	353	12.393927191371	1
7	359	12.707145523499	1
7	377	13.295610606889	1
7	392	13.770478128441	1
7	419	14.519647964494	1
7	425	14.740910647188	1
7	437	14.838170573797	1
7	485	15.286096747482	1
7	509	15.800969616388	0.96969696969697
7	544	16.151030040329	0.97058823529412
7	551	16.322659717855	0.97142857142857
7	561	16.376997703901	0.97222222222222
7	564	16.395519498018	0.97297297297297
7	572	16.578136117773	0.94736842105263
7	614	17.189217200483	0.94871794871795
7	657	18.181613596136	0.95
7	695	18.467418126404	0.92682926829268
7	715	18.633722634267	0.92857142857143
7	724	18.700972265077	0.93023255813953
7	741	19.008109487234	0.90909090909091
7	767	19.378053841392	0.91111111111111
7	785	19.792082535208	0.89130434782609
7	821	20.282478818647	0.8936170212766
7	832	20.497986496403	0.89583333333333
7	845	20.751928141783	0.89795918367347
7	871	21.177827551134	0.88
8	7	0	1
8	23	0.84426574409	1
8	32	0.900978719815	1
8	56	1.713147446279	1
8	62	1.853498223702	1
8	71	2.32710626372	1
8	86	3.005985797381	1
8	89	3.111893403807	1
8	113	3.585493826537	1
8	128	3.971982804589	1
8	131	4.071263156129	1
8	158	5.041072224728	1
8	179	6.000021493989	1
8	197	6.62353159999	1
8	212	7.28605846804	1
8	239	8.164251936593	1
8	254	8.85291312285	1
8	281	9.718015686834	1
8	305	10.559401808997	1
8	329	11.263139089794	1
8	338	11.943194662678	1
8	347	12.059396572635	1
8	362	12.734835649831	1
8	380	13.394504063986	1
8	395	13.864636252391	1
8	428	14.74308844352	1
8	502	15.727130678937	1
8	533	16.100421431696	1
8	536	16.109103719815	0.96551724137931
8	594	16.86533312964	0.96666666666667
8	633	17.648977377672	0.96774193548387
8	665	18.214110797381	0.9375
8	711	18.61346714337	0.93939393939394
8	718	18.638145872146	0.94117647058824
8	757	19.279388156129	0.91428571428571
8	761	19.317538647899	0.91666666666667
8	776	19.546757970923	0.91891891891892
8	826	20.377806428573	0.92105263157895
8	838	20.607248257598	0.92307692307692
9	8	0	1
9	29	0.857945619849	1
9	44	1.335610731504	1
9	53	1.673006893134	1
9	77	2.630162047453	1
9	95	3.212181838692	1
9	125	3.949100016613	1
9	149	4.851448594822	1
9	161	5.176495822376	1
9	173	5.829286141317	1
9	185	6.243654729328	1
9	206	6.918407051586	1
9	224	7.592066682637	1
9	227	7.612054354971	1
9	236	8.053765276441	1
9	248	8.534658812678	1
9	251	8.751480945844	1
9	266	9.316669811486	1
9	272	9.399782298124	1
9	275	9.40913899987	1
9	290	10.251481079021	1
9	314	10.804302563182	1
9	332	11.560409254616	1
9	341	12.009606986528	1
9	368	12.776630689145	1
9	371	13.007163712277	1
9	386	13.402033004431	1
9	389	13.690024008262	1
9	404	14.07348623428	1
9	416	14.427532898713	1
9	431	14.74853014246	1
9	460	15.008871071025	1
9	463	15.046430455505	1
9	491	15.554745905784	1
9	498	15.694718488941	1
9	580	16.677293445665	1
9	601	16.881131893134	0.97297297297297
9	609	17.022645124217	0.97368421052632
9	636	17.721743201819	0.97435897435897
9	674	18.275985637894	0.975
9	679	18.332403972493	0.97560975609756
9	691	18.420306838692	0.95238095238095
9	732	18.820241678487	0.95348837209302
9	773	19.534938611303	0.95454545454545
9	808	20.059573594822	0.93333333333333
9	811	20.123255728723	0.93478260869565
9	848	20.803135183618	0.93617021276596
9	857	20.956829487091	0.9375
9	864	21.037411141317	0.91836734693878
10	9	0	1
10	26	0.847251737257	1
10	41	1.119908031774	1
10	65	1.955986800602	1
10	83	2.756897553101	1
10	110	3.515513173535	1
10	119	3.737834559052	1
10	134	4.187784548612	1
10	146	4.84092458081	1
10	167	5.448755247514	1
10	188	6.444054813119	1
10	200	6.761256557884	1
10	203	6.774828199757	1
10	215	7.397674293018	1
10	230	7.907298664788	1
10	257	8.886885395266	1
10	269	9.395854356225	1
10	278	9.673572920254	1
10	296	10.320747058829	1
10	311	10.690555154569	1
10	320	11.123843218422	1
10	344	12.019881607721	1
10	356	12.431701749552	1
10	383	13.397117968171	1
10	410	14.113192501698	1
10	413	14.146817595452	1
10	476	15.115779361441	1
10	479	15.208125	0.96428571428571
10	482	15.282626879387	0.96551724137931
10	529	16.061677897567	0.96666666666667
10	548	16.292420239172	0.96774193548387
10	554	16.328033031774	0.9375
10	588	16.813456842194	0.93939393939394
10	623	17.517871241534	0.94117647058824
10	649	18.053504038818	0.94285714285714
10	671	18.272253406682	0.94444444444444
10	682	18.357548973738	0.94594594594595
10	754	19.238553532381	0.94736842105263
10	764	19.375773953255	0.94871794871795
10	804	20.04904958081	0.925
10	817	20.257359357299	0.92682926829268
10	854	20.944847630085	0.92857142857143
11	10	0	1
11	20	0.623563696397	1
11	35	0.921098301652	1
11	50	1.401075473054	1
11	59	1.769317010416	1
11	80	2.639404261483	1
11	92	3.176777489714	1
11	101	3.363109834257	1
11	107	3.498328007522	1
11	116	3.648002871309	1
11	140	4.550601342689	1
11	152	4.908753512888	1
11	155	4.947178938421	1
11	170	5.581452991575	1
11	182	6.163303323782	1
11	194	6.50131094129	1
11	218	7.450881992692	1
11	221	7.506596685612	1
11	233	7.957755899514	1
11	245	8.317200368494	1
11	263	9.235435841363	1
11	287	10.156593453362	1
11	302	10.55441420501	1
11	323	11.124032609387	1
11	335	11.762953689544	1
11	365	12.741524613451	1
11	374	13.274730865133	1
11	398	13.893539426137	1
11	401	13.9964027861	1
11	407	14.088776672711	1
11	422	14.640592927798	1
11	434	14.781856830683	1
11	488	15.318879347978	1
11	506	15.730276072382	1
11	541	16.150351440052	1
11	575	16.609200473054	0.97222222222222
11	598	16.880342001777	0.97297297297297
11	619	17.380368295574	0.97368421052632
11	644	17.99433424811	0.97435897435897
11	660	18.204178002179	0.975
11	688	18.384902489714	0.95121951219512
11	704	18.571234834257	0.92857142857143
11	748	19.174414687073	0.93023255813953
11	788	19.837492890637	0.93181818181818
11	842	20.710143548184	0.93333333333333
11	874	21.181895124007	0.93478260869565
