file 898249 1433106225                                          
version 2
run General-0-20150601-05:02:53-11034
attr configname General
attr datetime 20150601-05:02:53
attr experiment General
attr inifile omnetpp.ini
attr iterationvars ""
attr iterationvars2 $repetition=0
attr measurement ""
attr network Wsn
attr processid 11034
attr repetition 0
attr replication #0
attr resultdir results
attr runnumber 0
attr seedset 0

vector 29  Wsn.Sensor_0.queue  "rate of channel"  ETV
vector 33  Wsn.Sensor_1.queue  "rate of channel"  ETV
vector 37  Wsn.Sensor_2.queue  "rate of channel"  ETV
vector 41  Wsn.Sensor_3.queue  "rate of channel"  ETV
vector 45  Wsn.Sensor_4.queue  "rate of channel"  ETV
vector 49  Wsn.Sensor_5.queue  "rate of channel"  ETV
vector 53  Wsn.Sensor_6.queue  "rate of channel"  ETV
vector 57  Wsn.Sensor_7.queue  "rate of channel"  ETV
vector 61  Wsn.Sensor_8.queue  "rate of channel"  ETV
vector 65  Wsn.Sensor_9.queue  "rate of channel"  ETV
vector 69  Wsn.Sensor_10.queue  "rate of channel"  ETV
vector 30  Wsn.Sensor_0.control  time  ETV
vector 31  Wsn.Sensor_0.control  "length of the queue"  ETV
vector 34  Wsn.Sensor_1.control  time  ETV
vector 35  Wsn.Sensor_1.control  "length of the queue"  ETV
vector 38  Wsn.Sensor_2.control  time  ETV
vector 39  Wsn.Sensor_2.control  "length of the queue"  ETV
vector 42  Wsn.Sensor_3.control  time  ETV
vector 43  Wsn.Sensor_3.control  "length of the queue"  ETV
vector 46  Wsn.Sensor_4.control  time  ETV
vector 47  Wsn.Sensor_4.control  "length of the queue"  ETV
vector 50  Wsn.Sensor_5.control  time  ETV
vector 51  Wsn.Sensor_5.control  "length of the queue"  ETV
vector 54  Wsn.Sensor_6.control  time  ETV
vector 55  Wsn.Sensor_6.control  "length of the queue"  ETV
vector 58  Wsn.Sensor_7.control  time  ETV
vector 59  Wsn.Sensor_7.control  "length of the queue"  ETV
vector 62  Wsn.Sensor_8.control  time  ETV
vector 63  Wsn.Sensor_8.control  "length of the queue"  ETV
vector 66  Wsn.Sensor_9.control  time  ETV
vector 67  Wsn.Sensor_9.control  "length of the queue"  ETV
vector 70  Wsn.Sensor_10.control  time  ETV
vector 71  Wsn.Sensor_10.control  "length of the queue"  ETV
vector 15  Wsn.Sink.queue  "rate of channel"  ETV
vector 16  Wsn.Sink.control  time  ETV
vector 17  Wsn.Sink.control  "length of the queue"  ETV
vector 20  Wsn.Sink2.queue  "rate of channel"  ETV
vector 21  Wsn.Sink2.control  time  ETV
vector 22  Wsn.Sink2.control  "length of the queue"  ETV
vector 19  Wsn.Sink2.ret  num  ETV
vector 14  Wsn.Sink.ret  num  ETV
vector 24  Wsn.Gateway.ret  num  ETV
vector 25  Wsn.Gateway.queue  "rate of channel"  ETV
14	2543 13843 140 53567 0.561364993391 62.49210810509 524 1 9 803 1771
15	16386 76534 47 53560 0.11417169956 62.477993350109 1867 0.71428571428571 1 1600.32021929 1372.7098376327
16	92920 58224 48 53561 0.11417169956 62.477993350109 1414 0 5.7699239817448 944.64083571067 1500.4274720239
17	151144 37404 48 53561 0.11417169956 62.477993350109 1414 0 13 3852 16694
19	188548 27260 129 53549 0.532210938278 62.468106281276 1028 1 7 1292 1996
20	215808 124279 90 53551 0.376823080815 62.468106281276 3019 0.82022471910112 1 2751.315413826 2508.5839716635
21	340087 96642 91 53552 0.376823080815 62.468106281276 2325 0 0.49996557296254 579.40112152963 192.490398105
22	436729 62174 91 53552 0.376823080815 62.468106281276 2325 0 20 15293 145121
24	498903 14863 216 53420 0.727019849637 62.265477580153 561 1 11 1142 3706
25	513766 14860 217 53421 0.727019849637 62.265477580153 561 1 1 561 561
29	528626 12766 12 53433 0 62.296374823215 317 0.55555555555556 1 201.09772671243 128.39225084316
30	541392 10203 23 53287 0 62.015511750613 247 0 0.48989552096464 60.064593674149 19.821751665303
31	551595 6493 23 53287 0 62.015511750613 247 0 4 247 477
33	558088 12009 13 53462 0 62.319967275071 300 0.59666666666667 1 200.26975458742 135.15079449079
34	570097 10438 24 53346 0 62.127879363069 253 0 0.49644334532786 63.170309576904 21.162662271532
35	580535 6627 24 53346 0 62.127879363069 253 0 4 279 569
37	587162 12811 14 53339 0 62.120570741293 319 0.54437869822485 1 194.14226697829 119.88875535086
38	599973 12048 25 53340 0 62.120570741293 293 0.0023841890506446 18.090009464184 355.05514152577 2121.7917224879
39	612021 7707 25 53340 0 62.120570741293 293 0 3 233 301
41	619728 12304 15 53565 0 62.479194423254 309 0.54794520547945 1 197.69075180264 129.04519646992
42	632032 11366 26 53243 0 61.943976527737 278 0 18.943880650681 389.13525385337 2147.5180692977
43	643398 7321 26 53243 0 61.943976527737 278 0 4 217 309
45	650719 12507 16 53385 0 62.208456326043 312 0.5364238410596 1 190.51215382782 118.93768012592
46	663226 10873 27 53386 0 62.208456326043 265 0 15.294078997802 362.40471079792 2213.5454655313
47	674099 6970 27 53386 0 62.208456326043 265 0 5 208 302
49	681069 14283 17 53532 0 62.431384482229 356 0.54941860465116 1 226.76859781736 147.76356658554
50	695352 13755 28 53533 0 62.431384482229 336 0 17.192268580198 420.49172866253 2364.1574524749
51	709107 8819 28 53533 0 62.431384482229 336 0 3 275 351
53	717926 12734 18 53524 0 62.418519563832 320 0.58549222797927 1 205.03842035222 134.21050763163
54	730660 11797 29 53442 0 62.301808791564 288 0 17.609247064916 344.15578719172 1930.4158974989
55	742457 7544 29 53442 0 62.301808791564 288 0 3 230 280
57	750001 12873 19 53272 0 61.975998555261 321 0.57680250783699 1 210.08056121324 138.8486315093
58	762874 14897 30 53273 0 61.975998555261 365 0 11.771712049842 191.82614227016 485.73118839659
59	777771 9577 30 53273 0 61.975998555261 365 0 4 421 731
61	787348 12354 20 53540 0 62.442806259062 309 0.59636363636364 1 204.05212396836 135.90185108514
62	799702 16860 31 53541 0 62.442806259062 409 0 6.2853948273696 199.3907338985 302.00316159104
63	816562 10783 31 53541 0 62.442806259062 409 0 5 487 881
65	827345 12451 21 53279 0 61.991768663016 313 0.56351791530945 1 191.63380318319 118.30611019457
66	839796 14302 32 53280 0 61.991768663016 351 0 9.2211512818467 179.00573151326 476.94666408956
67	854098 9200 32 53280 0 61.991768663016 351 0 4 383 629
69	863298 12187 22 53537 0 62.439458225759 306 0.53333333333333 1 191.99652788736 121.40594833091
70	875485 13909 33 53538 0 62.439458225759 338 0 9.7591855372302 172.27001856617 406.19491143361
71	889394 8855 33 53538 0 62.439458225759 338 0 3 349 529
