file 577195 1433225828                                          
version 2
run General-0-20150602-14:15:55-5376
attr configname General
attr datetime 20150602-14:15:55
attr experiment General
attr inifile omnetpp.ini
attr iterationvars ""
attr iterationvars2 $repetition=0
attr measurement ""
attr network Wsn
attr processid 5376
attr repetition 0
attr replication #0
attr resultdir results
attr runnumber 0
attr seedset 0

vector 29  Wsn.Sensor_0.queue  "rate of channel"  ETV
vector 33  Wsn.Sensor_1.queue  "rate of channel"  ETV
vector 37  Wsn.Sensor_2.queue  "rate of channel"  ETV
vector 41  Wsn.Sensor_3.queue  "rate of channel"  ETV
vector 45  Wsn.Sensor_4.queue  "rate of channel"  ETV
vector 49  Wsn.Sensor_5.queue  "rate of channel"  ETV
vector 53  Wsn.Sensor_6.queue  "rate of channel"  ETV
vector 57  Wsn.Sensor_7.queue  "rate of channel"  ETV
vector 61  Wsn.Sensor_8.queue  "rate of channel"  ETV
vector 65  Wsn.Sensor_9.queue  "rate of channel"  ETV
vector 69  Wsn.Sensor_10.queue  "rate of channel"  ETV
vector 30  Wsn.Sensor_0.control  time  ETV
vector 31  Wsn.Sensor_0.control  "length of the queue"  ETV
vector 34  Wsn.Sensor_1.control  time  ETV
vector 35  Wsn.Sensor_1.control  "length of the queue"  ETV
vector 38  Wsn.Sensor_2.control  time  ETV
vector 39  Wsn.Sensor_2.control  "length of the queue"  ETV
vector 42  Wsn.Sensor_3.control  time  ETV
vector 43  Wsn.Sensor_3.control  "length of the queue"  ETV
vector 46  Wsn.Sensor_4.control  time  ETV
vector 47  Wsn.Sensor_4.control  "length of the queue"  ETV
vector 50  Wsn.Sensor_5.control  time  ETV
vector 51  Wsn.Sensor_5.control  "length of the queue"  ETV
vector 54  Wsn.Sensor_6.control  time  ETV
vector 55  Wsn.Sensor_6.control  "length of the queue"  ETV
vector 58  Wsn.Sensor_7.control  time  ETV
vector 59  Wsn.Sensor_7.control  "length of the queue"  ETV
vector 62  Wsn.Sensor_8.control  time  ETV
vector 63  Wsn.Sensor_8.control  "length of the queue"  ETV
vector 66  Wsn.Sensor_9.control  time  ETV
vector 67  Wsn.Sensor_9.control  "length of the queue"  ETV
vector 70  Wsn.Sensor_10.control  time  ETV
vector 71  Wsn.Sensor_10.control  "length of the queue"  ETV
vector 15  Wsn.Sink.queue  "rate of channel"  ETV
vector 16  Wsn.Sink.control  time  ETV
vector 17  Wsn.Sink.control  "length of the queue"  ETV
vector 20  Wsn.Sink2.queue  "rate of channel"  ETV
vector 21  Wsn.Sink2.control  time  ETV
vector 22  Wsn.Sink2.control  "length of the queue"  ETV
vector 25  Wsn.Gateway.queue  "rate of channel"  ETV
15	2492 50185 47 35720 0.11417169956 33.541136256549 1206 0.71428571428571 1 1049.5567672105 913.75817845817
16	52677 39988 48 35721 0.11417169956 33.541136256549 955 0 5.5135335043694 766.11666435611 1267.5413880951
17	92665 26018 48 35721 0.11417169956 33.541136256549 955 0 13 3240 15606
20	118683 83290 90 35747 0.376823080815 33.581718672776 1987 0.82022471910112 1 1818.2194924263 1664.899024531
21	201973 65888 91 35748 0.376823080815 33.581718672776 1555 0 0.49996557296254 389.0835147131 129.4666515622
22	267861 43064 91 35748 0.376823080815 33.581718672776 1555 0 20 12587 134297
25	310925 8737 217 35757 0.727019849637 33.589622020043 321 1 1 321 321
29	319662 7920 12 35742 0 33.572735852964 195 0.55555555555556 1 127.14921016816 83.544015822901
30	327582 6756 23 35743 0 33.572735852964 161 0 0.48552458256017 38.825492816628 12.853719160602
31	334338 4336 23 35743 0 33.572735852964 161 0 4 205 431
33	338674 8041 13 35769 0 33.608579459905 198 0.62626262626263 1 138.32367356993 97.524154176133
34	346715 7500 24 35588 0 33.297094472998 179 0 0.49644334532786 45.442517482443 15.304041847791
35	354215 4813 24 35588 0 33.297094472998 179 0 4 253 543
37	359028 8838 14 35656 0 33.41232527195 218 0.54437869822485 1 137.58235228576 88.2130528237
38	367866 8803 25 35657 0 33.41232527195 210 0.0023841890506446 18.090009464184 247.68215739502 1778.1523106639
39	376669 5686 25 35657 0 33.41232527195 210 0 3 186 248
41	382355 8848 15 35677 0 33.451292974628 220 0.54794520547945 1 146.33294467649 99.403258241845
42	391203 8384 26 35678 0 33.451292974628 201 0 18.943880650681 275.75608906765 1833.9095538971
43	399587 5453 26 35678 0 33.451292974628 201 0 4 187 275
45	405040 8413 16 35696 0 33.495053217547 208 0.5364238410596 1 131.63277704715 85.599947782282
46	413453 7954 27 35697 0 33.495053217547 190 0 15.294078997802 254.94499363562 1873.6366651361
47	421407 5147 27 35697 0 33.495053217547 190 0 5 176 268
49	426554 9702 17 35547 0 33.190033100384 239 0.56038647342995 1 161.1433310088 110.95055579934
50	436256 9675 28 35548 0 33.190033100384 232 0 17.192268580198 293.34428608788 1988.3260468791
51	445931 6259 28 35548 0 33.190033100384 232 0 3 207 261
53	452190 8552 18 35573 0 33.260555024151 212 0.58549222797927 1 140.63416770475 95.8027755762
54	460742 8388 29 35574 0 33.260555024151 201 0 17.609247064916 241.44986781107 1666.4154600088
55	469130 5410 29 35574 0 33.260555024151 201 0 3 184 234
57	474540 7314 19 35582 0 33.289547460838 182 0.61111111111111 1 126.32969169918 88.345747457894
58	481854 9643 30 35583 0 33.289547460838 231 0 11.771712049842 138.19180433118 431.266497395
59	491497 6198 30 35583 0 33.289547460838 231 0 4 297 553
61	497695 8420 20 35764 0 33.606898161424 209 0.61386138613861 1 142.77663291945 98.348885216089
62	506115 12775 31 35765 0 33.606898161424 304 0 6.2853948273696 147.91760473372 210.27037437015
63	518890 8261 31 35765 0 33.606898161424 304 0 5 414 788
65	527151 8077 21 35761 0 33.59062692918 202 0.58793969849246 1 127.42430536297 81.147484819375
66	535228 10127 32 35762 0 33.59062692918 242 0 9.2211512818467 141.8766815407 447.16620843189
67	545355 6509 32 35762 0 33.59062692918 242 0 3 279 457
69	551864 8247 22 35651 0 33.410134533586 205 0.53333333333333 1 132.73757675345 86.630386460933
70	560111 10397 33 35652 0 33.410134533586 248 0.00079728395212442 9.7591855372302 140.83591417014 385.4450263604
71	570508 6687 33 35652 0 33.410134533586 248 0 3 294 466
