file 934940 1433151710                                          
version 2
run General-0-20150601-17:38:56-6228
attr configname General
attr datetime 20150601-17:38:56
attr experiment General
attr inifile omnetpp.ini
attr iterationvars ""
attr iterationvars2 $repetition=0
attr measurement ""
attr network Wsn
attr processid 6228
attr repetition 0
attr replication #0
attr resultdir results
attr runnumber 0
attr seedset 0

vector 26  Wsn.Sensor_0.queue  "rate of channel"  ETV
vector 29  Wsn.Sensor_1.queue  "rate of channel"  ETV
vector 32  Wsn.Sensor_2.queue  "rate of channel"  ETV
vector 35  Wsn.Sensor_3.queue  "rate of channel"  ETV
vector 38  Wsn.Sensor_4.queue  "rate of channel"  ETV
vector 41  Wsn.Sensor_5.queue  "rate of channel"  ETV
vector 44  Wsn.Sensor_6.queue  "rate of channel"  ETV
vector 47  Wsn.Sensor_7.queue  "rate of channel"  ETV
vector 50  Wsn.Sensor_8.queue  "rate of channel"  ETV
vector 53  Wsn.Sensor_9.queue  "rate of channel"  ETV
vector 56  Wsn.Sensor_10.queue  "rate of channel"  ETV
vector 27  Wsn.Sensor_0.control  time  ETV
vector 28  Wsn.Sensor_0.control  "length of the queue"  ETV
vector 30  Wsn.Sensor_1.control  time  ETV
vector 31  Wsn.Sensor_1.control  "length of the queue"  ETV
vector 33  Wsn.Sensor_2.control  time  ETV
vector 34  Wsn.Sensor_2.control  "length of the queue"  ETV
vector 36  Wsn.Sensor_3.control  time  ETV
vector 37  Wsn.Sensor_3.control  "length of the queue"  ETV
vector 39  Wsn.Sensor_4.control  time  ETV
vector 40  Wsn.Sensor_4.control  "length of the queue"  ETV
vector 42  Wsn.Sensor_5.control  time  ETV
vector 43  Wsn.Sensor_5.control  "length of the queue"  ETV
vector 45  Wsn.Sensor_6.control  time  ETV
vector 46  Wsn.Sensor_6.control  "length of the queue"  ETV
vector 48  Wsn.Sensor_7.control  time  ETV
vector 49  Wsn.Sensor_7.control  "length of the queue"  ETV
vector 51  Wsn.Sensor_8.control  time  ETV
vector 52  Wsn.Sensor_8.control  "length of the queue"  ETV
vector 54  Wsn.Sensor_9.control  time  ETV
vector 55  Wsn.Sensor_9.control  "length of the queue"  ETV
vector 57  Wsn.Sensor_10.control  time  ETV
vector 58  Wsn.Sensor_10.control  "length of the queue"  ETV
vector 15  Wsn.Sink.queue  "rate of channel"  ETV
vector 16  Wsn.Sink.control  time  ETV
vector 17  Wsn.Sink.control  "length of the queue"  ETV
vector 19  Wsn.Sink2.queue  "rate of channel"  ETV
vector 20  Wsn.Sink2.control  time  ETV
vector 21  Wsn.Sink2.control  "length of the queue"  ETV
vector 23  Wsn.Gateway.queue  "rate of channel"  ETV
15	2492 90603 45 58007 0.12428089912 95.013053541842 2146 0.78378378378378 1 1727.1318085692 1390.5381052902
16	93095 61070 46 58008 0.12428089912 95.013053541842 1433 7.2453403845429e-005 0.99995661457069 712.82853693655 476.00691770608
17	154165 39548 46 58008 0.12428089912 95.013053541842 1433 0 3 1883 3005
19	193713 147562 49 58083 0.17509855871 95.104957933842 3489 0.81818181818182 1 2914.136424998 2434.9423962233
20	341275 109415 50 58084 0.17509855871 95.104957933842 2568 7.3696952313185e-005 0.99997795280069 1293.3999855982 862.32742653811
21	450690 70857 50 58084 0.17509855871 95.104957933842 2568 0 5 6427 17587
23	521547 23715 248 58092 1.257779401605 95.116652748553 859 1 1 859 859
26	545262 12266 12 57843 0 94.749867854426 298 0.52631578947368 1 184.39207595615 114.89377301926
27	557528 9073 23 57622 0 94.362256097282 214 0.0012970545794815 0.99884700286202 108.19900512067 71.441706449
28	566601 5864 23 57622 0 94.362256097282 214 0 0 0 0
29	572465 14646 13 57840 0 94.749529101321 353 0.50704225352113 1 201.68012988476 116.72428933173
30	587111 11048 24 57841 0 94.749529101321 259 0.0059387558139861 0.99241739767604 130.50227790722 87.4406599968
31	598159 7151 24 57841 0 94.749529101321 259 0 1 6 6
32	605310 12449 14 57896 0 94.838359478309 302 0.55555555555556 1 190.50152471814 120.74153417033
33	617759 10386 25 57897 0 94.838359478309 244 0.0003673501778394 0.99224345502444 122.82001108862 82.209558106574
34	628145 6715 25 57897 0 94.838359478309 244 0 0 0 0
35	634860 16423 15 58086 0 95.113387573862 394 0.51851851851852 1 217.99907695124 121.64373057578
36	651283 14715 26 58087 0 95.113387573862 346 0.0059661350678653 0.99242952140048 168.18982403865 108.80565302695
37	665998 9541 26 58087 0 95.113387573862 346 0 1 26 26
38	675539 14529 16 58036 0 95.03905325885 353 0.48717948717949 1 208.82842122312 124.37658501796
39	690068 12350 27 58037 0 95.03905325885 291 0.0077660954557359 0.99034500611015 148.48011855897 99.758550482273
40	702418 7994 27 58037 0 95.03905325885 291 0 1 10 10
41	710412 13586 17 57711 0 94.566327958042 329 0.5 1 184.49657722581 104.58998520884
42	723998 10861 28 57712 0 94.566327958042 256 0.00085093732923269 0.99802548438311 126.55791821587 84.146139967266
43	734859 7018 28 57712 0 94.566327958042 256 0 1 3 3
44	741877 14578 18 58024 0 95.02553055728 352 0.53333333333333 1 212.25717832552 128.78288840663
45	756455 11864 29 58025 0 95.02553055728 279 0.0020838773343712 0.99983847676776 134.28347781324 86.996524399341
46	768319 7674 29 58025 0 95.02553055728 279 0 1 11 11
47	775993 15994 19 58096 0 95.117116041842 390 0.44 1 198.15485699675 102.20566018346
48	791987 15288 30 58001 0 95.009373060434 359 0.00081261177547276 0.99885483714752 182.33302159631 122.14011934989
49	807275 9904 30 58001 0 95.009373060434 359 0 1 17 17
50	817179 12849 20 58063 0 95.057800850746 312 0.55367231638418 1 187.02926933188 113.71115069219
51	830028 11312 31 58064 0 95.057800850746 266 0.0061004327144474 0.99717961018905 135.12870934303 92.296472740971
52	841340 7333 31 58064 0 95.057800850746 266 0 0 0 0
53	848673 17547 21 58077 0 95.104155197883 422 0.38461538461538 1 198.80441069753 95.722788676856
54	866220 17750 32 58078 0 95.104155197883 417 0.0086365893948823 0.99516689963639 206.82474511582 135.8829705462
55	883970 11503 32 58078 0 95.104155197883 417 0 1 47 47
56	895473 14988 22 58080 0 95.104418094053 367 0.41379310344828 1 178.80346091389 88.123938361914
57	910461 14867 33 57892 0 94.820160942988 350 0.00091291475109756 0.99571268353611 176.24205223401 118.97256364256
58	925328 9612 33 57892 0 94.820160942988 350 0 1 38 38
