file 7125 1431353157                                            
version 2
run General-0-20150511-22:05:00-4440
attr configname General
attr datetime 20150511-22:05:00
attr experiment General
attr inifile omnetpp.ini
attr iterationvars $jobs=1
attr iterationvars2 "$jobs=1, $repetition=0"
attr jobs 1
attr measurement $jobs=1
attr network Wsn
attr processid 4440
attr repetition 0
attr replication #0
attr resultdir results
attr runnumber 0
attr seedset 0

vector 7  Wsn.node[0].queue  "rate of channel"  ETV
vector 8  Wsn.node[1].queue  "rate of channel"  ETV
vector 9  Wsn.node[2].queue  "rate of channel"  ETV
vector 10  Wsn.node[3].queue  "rate of channel"  ETV
vector 11  Wsn.node[4].queue  "rate of channel"  ETV
7	677 1455 6 871 0 21.177827551134 50 0.88 1 48.767544502701 47.637374950216
8	2132 1082 7 838 0 20.607248257598 39 0.91428571428571 1 38.311997108039 37.671389894426
9	3214 1356 8 864 0 21.037411141317 49 0.91836734693878 1 48.392194194709 47.817527871863
10	4570 1251 9 854 0 20.944847630085 42 0.925 1 41.19201656768 40.430443447554
11	5821 1304 10 874 0 21.181895124007 46 0.92857142857143 1 45.478196002834 44.985564639421
