file 9877 1432869811                                            
version 2
run General-0-20150529-11:19:11-3935
attr configname General
attr datetime 20150529-11:19:11
attr experiment General
attr inifile omnetpp.ini
attr iterationvars ""
attr iterationvars2 $repetition=0
attr measurement ""
attr network Wsn
attr processid 3935
attr repetition 0
attr replication #0
attr resultdir results
attr runnumber 0
attr seedset 0

vector 20  Wsn.node[0].queue  "rate of channel"  ETV
vector 23  Wsn.node[1].queue  "rate of channel"  ETV
vector 26  Wsn.node[2].queue  "rate of channel"  ETV
vector 29  Wsn.node[3].queue  "rate of channel"  ETV
vector 32  Wsn.node[4].queue  "rate of channel"  ETV
vector 35  Wsn.node[5].queue  "rate of channel"  ETV
vector 38  Wsn.node[6].queue  "rate of channel"  ETV
vector 41  Wsn.node[7].queue  "rate of channel"  ETV
vector 44  Wsn.node[8].queue  "rate of channel"  ETV
vector 47  Wsn.node[9].queue  "rate of channel"  ETV
vector 21  Wsn.node[0].control  time  ETV
vector 22  Wsn.node[0].control  "length of the queue"  ETV
vector 24  Wsn.node[1].control  time  ETV
vector 25  Wsn.node[1].control  "length of the queue"  ETV
vector 27  Wsn.node[2].control  time  ETV
vector 28  Wsn.node[2].control  "length of the queue"  ETV
vector 30  Wsn.node[3].control  time  ETV
vector 31  Wsn.node[3].control  "length of the queue"  ETV
vector 33  Wsn.node[4].control  time  ETV
vector 34  Wsn.node[4].control  "length of the queue"  ETV
vector 36  Wsn.node[5].control  time  ETV
vector 37  Wsn.node[5].control  "length of the queue"  ETV
vector 39  Wsn.node[6].control  time  ETV
vector 40  Wsn.node[6].control  "length of the queue"  ETV
vector 42  Wsn.node[7].control  time  ETV
vector 43  Wsn.node[7].control  "length of the queue"  ETV
vector 45  Wsn.node[8].control  time  ETV
vector 46  Wsn.node[8].control  "length of the queue"  ETV
vector 48  Wsn.node[9].control  time  ETV
vector 49  Wsn.node[9].control  "length of the queue"  ETV
vector 17  Wsn.transfer.queue  "rate of channel"  ETV
vector 18  Wsn.transfer.control  time  ETV
vector 19  Wsn.transfer.control  "length of the queue"  ETV
vector 13  Wsn.sink.queue  "rate of channel"  ETV
vector 14  Wsn.sink.control  time  ETV
vector 15  Wsn.sink.control  "length of the queue"  ETV
13	2201 96 412 473 2.480781294517 2.646010382678 4 1 1 4 4
14	2297 86 413 474 2.480781294517 2.646010382678 3 0 1.7622064016759 1.7622064016759 3.1053714021077
15	2383 72 413 474 2.480781294517 2.646010382678 3 1 3 6 14
17	2455 954 85 439 1.160775475725 2.572639348972 40 1 1 40 40
18	3409 634 86 440 1.160775475725 2.572639348972 26 0 0.71901580411941 0.71901580411941 0.51698372657348
19	4043 636 86 440 1.160775475725 2.572639348972 26 1 22 334 5444
20	4679 144 11 417 0 2.521602267975 6 0.83333333333333 1 5.8333333333333 5.6944444444444
21	4823 142 21 418 0 2.521602267975 6 0 1.583450066857 1.583450066857 2.5073141142296
22	4965 129 21 418 0 2.521602267975 6 1 4 17 55
23	5094 191 12 458 0 2.593850775387 8 0.85714285714286 1 7.7321428571429 7.500318877551
24	5285 209 22 459 0 2.593850775387 9 0 1.6243374529295 1.6243374529295 2.6384721609894
25	5494 195 22 459 0 2.593850775387 9 1 6 33 139
26	5689 182 13 467 0 2.627175712024 7 0.83333333333333 1 6.6904761904762 6.4291383219955
27	5871 166 23 468 0 2.627175712024 7 0 1.0577898430638 1.0577898430638 1.1189193520889
28	6037 152 23 468 0 2.627175712024 7 1 5 21 73
29	6189 107 14 301 0 2.168079342804 5 0.8 1 4.8 4.64
30	6296 120 24 302 0 2.168079342804 5 0 0.95995434280485 0.95995434280485 0.92151234026989
31	6416 105 24 302 0 2.168079342804 5 1 3 12 32
32	6521 208 15 427 0 2.568181927081 8 0.71428571428571 1 7.297619047619 6.7671485260771
33	6729 189 25 428 0 2.568181927081 8 0 1.1360891275108 1.1360891275108 1.2906985056482
34	6918 175 25 428 0 2.568181927081 8 1 5 26 96
35	7093 250 16 478 0 2.673169857933 9 0.77777777777778 1 8.343253968254 7.7997015936004
36	7343 240 26 480 0 2.673169857933 10 0 0.78556958632544 0.78556958632544 0.61711957495952
37	7583 225 26 480 0 2.673169857933 10 1 6 37 159
38	7808 248 17 422 0 2.546201486717 9 0.77777777777778 1 8.343253968254 7.7997015936004
39	8056 213 27 423 0 2.546201486717 9 0 1.8511932664551 1.8511932664551 3.4269165097686
40	8269 199 27 423 0 2.546201486717 9 1 6 34 148
41	8468 145 18 284 0 2.116608794777 6 0.8 1 5.6333333333333 5.3344444444444
42	8613 142 28 285 0 2.116608794777 6 0 1.6721575376578 1.6721575376578 2.7961108307457
43	8755 128 28 285 0 2.116608794777 6 1 4 16 48
44	8883 145 19 448 0 2.583821103906 6 0.8 1 5.6333333333333 5.3344444444444
45	9028 143 29 449 0 2.583821103906 6 0 0.14207211742178 0.14207211742178 0.020184486548707
46	9171 128 29 449 0 2.583821103906 6 1 3 13 31
47	9299 210 20 482 0 2.676701848972 8 0.75 1 7.4404761904762 6.9916383219955
48	9509 191 30 483 0 2.676701848972 8 0 0.6747923232615 0.6747923232615 0.45534467953265
49	9700 177 30 483 0 2.676701848972 8 1 4 25 87
