file 575693 1433339170                                          
version 2
run General-0-20150603-21:44:42-8440
attr configname General
attr datetime 20150603-21:44:42
attr experiment General
attr inifile omnetpp.ini
attr iterationvars ""
attr iterationvars2 $repetition=0
attr measurement ""
attr network Wsn
attr processid 8440
attr repetition 0
attr replication #0
attr resultdir results
attr runnumber 0
attr seedset 0

vector 29  Wsn.Sensor_0.queue  "rate of channel"  ETV
vector 33  Wsn.Sensor_1.queue  "rate of channel"  ETV
vector 37  Wsn.Sensor_2.queue  "rate of channel"  ETV
vector 41  Wsn.Sensor_3.queue  "rate of channel"  ETV
vector 45  Wsn.Sensor_4.queue  "rate of channel"  ETV
vector 49  Wsn.Sensor_5.queue  "rate of channel"  ETV
vector 53  Wsn.Sensor_6.queue  "rate of channel"  ETV
vector 57  Wsn.Sensor_7.queue  "rate of channel"  ETV
vector 61  Wsn.Sensor_8.queue  "rate of channel"  ETV
vector 65  Wsn.Sensor_9.queue  "rate of channel"  ETV
vector 69  Wsn.Sensor_10.queue  "rate of channel"  ETV
vector 30  Wsn.Sensor_0.control  time  ETV
vector 31  Wsn.Sensor_0.control  "length of the queue"  ETV
vector 34  Wsn.Sensor_1.control  time  ETV
vector 35  Wsn.Sensor_1.control  "length of the queue"  ETV
vector 38  Wsn.Sensor_2.control  time  ETV
vector 39  Wsn.Sensor_2.control  "length of the queue"  ETV
vector 42  Wsn.Sensor_3.control  time  ETV
vector 43  Wsn.Sensor_3.control  "length of the queue"  ETV
vector 46  Wsn.Sensor_4.control  time  ETV
vector 47  Wsn.Sensor_4.control  "length of the queue"  ETV
vector 50  Wsn.Sensor_5.control  time  ETV
vector 51  Wsn.Sensor_5.control  "length of the queue"  ETV
vector 54  Wsn.Sensor_6.control  time  ETV
vector 55  Wsn.Sensor_6.control  "length of the queue"  ETV
vector 58  Wsn.Sensor_7.control  time  ETV
vector 59  Wsn.Sensor_7.control  "length of the queue"  ETV
vector 62  Wsn.Sensor_8.control  time  ETV
vector 63  Wsn.Sensor_8.control  "length of the queue"  ETV
vector 66  Wsn.Sensor_9.control  time  ETV
vector 67  Wsn.Sensor_9.control  "length of the queue"  ETV
vector 70  Wsn.Sensor_10.control  time  ETV
vector 71  Wsn.Sensor_10.control  "length of the queue"  ETV
vector 15  Wsn.Sink.queue  "rate of channel"  ETV
vector 16  Wsn.Sink.control  time  ETV
vector 17  Wsn.Sink.control  "length of the queue"  ETV
vector 20  Wsn.Sink2.queue  "rate of channel"  ETV
vector 21  Wsn.Sink2.control  time  ETV
vector 22  Wsn.Sink2.control  "length of the queue"  ETV
vector 19  Wsn.Sink2.ret  num  ETV
vector 14  Wsn.Sink.ret  num  ETV
vector 24  Wsn.Gateway.ret  num  ETV
vector 25  Wsn.Gateway.queue  "rate of channel"  ETV
14	2601 7843 140 33647 0.561364993391 30.221899018637 290 1 9 533 1415
15	10444 47093 47 33649 0.11417169956 30.221899018637 1133 0.71428571428571 1 987.58072980826 861.14119333051
16	57537 37491 48 33650 0.11417169956 30.221899018637 897 0 5.5135335043694 744.28353284818 1239.7100171177
17	95028 24397 48 33650 0.11417169956 30.221899018637 897 0 13 3164 15486
19	119425 16798 129 33568 0.532210938278 30.056160957013 616 1 7 840 1460
20	136223 78022 90 33669 0.376823080815 30.278410025247 1864 0.82022471910112 1 1705.7275945166 1562.017421164
21	214245 62014 91 33670 0.376823080815 30.278410025247 1465 0 0.49996557296254 368.16186277184 122.97991778808
22	276259 40551 91 33670 0.376823080815 30.278410025247 1465 0 20 12293 133269
24	316810 7902 216 33608 0.727019849637 30.122159832967 291 1 11 687 2611
25	324712 7899 217 33609 0.727019849637 30.122159832967 291 1 1 291 291
29	332611 7447 12 33654 0 30.226222332967 184 0.55555555555556 1 120.31246436312 79.294773856235
30	340058 6454 23 33655 0 30.226222332967 154 0 0.48552458256017 37.610177471302 12.602033695008
31	346512 4140 23 33655 0 30.226222332967 154 0 4 204 430
33	350652 7442 13 33642 0 30.210732831006 184 0.64285714285714 1 129.39732606092 91.832010852791
34	358094 7027 24 33643 0 30.210732831006 168 0 0.49644334532786 42.298376991879 14.167722802584
35	365121 4505 24 33643 0 30.210732831006 168 0 4 246 536
37	369626 8151 14 33486 0 29.882082138523 202 0.54437869822485 1 128.73223499277 83.317605798874
38	377777 8207 25 33487 0 29.882082138523 196 0.0023841890506446 18.090009464184 233.66272828852 1746.7638115861
39	385984 5295 25 33487 0 29.882082138523 196 0 3 178 240
41	391279 8270 15 33501 0 29.920547840171 206 0.55825242718447 1 138.52377533038 95.046934510464
42	399549 7916 26 33502 0 29.920547840171 190 0 18.943880650681 265.62339816391 1816.0139007494
43	407465 5146 26 33502 0 29.920547840171 190 0 4 180 268
45	412611 8039 16 33558 0 30.039528983914 199 0.5364238410596 1 126.64757165538 82.838550566933
46	420650 7698 27 33559 0 30.039528983914 184 0 15.294078997802 247.69121166305 1857.5638813164
47	428348 4979 27 33559 0 30.039528983914 184 0 5 174 266
49	433327 8975 17 33443 0 29.820958390211 222 0.56038647342995 1 151.48557767019 105.46385950614
50	442302 8993 28 33444 0 29.820958390211 216 0 17.192268580198 282.96700395921 1970.5909064333
51	451295 5814 28 33444 0 29.820958390211 216 0 3 195 249
53	457109 8167 18 33377 0 29.739048967499 203 0.58549222797927 1 135.2639789641 92.598420715042
54	465276 8048 29 33378 0 29.739048967499 193 0 17.609247064916 232.53424716778 1651.3170275671
55	473324 5186 29 33378 0 29.739048967499 193 0 3 182 232
57	478510 6713 19 33295 0 29.604145950627 168 0.61111111111111 1 117.13089683221 82.300828241618
58	485223 9132 30 33296 0 29.604145950627 219 0 11.771712049842 131.56467052844 425.12225873444
59	494355 5863 30 33296 0 29.604145950627 219 0 4 290 546
61	500218 7928 20 33659 0 30.25471625741 197 0.61578947368421 1 135.34233935379 93.742988720721
62	508146 12103 31 33660 0 30.25471625741 288 0 6.2853948273696 142.49098627095 208.17233622739
63	520249 7813 31 33660 0 30.25471625741 288 0 4 388 722
65	528062 7547 21 33601 0 30.108268673061 189 0.58918918918919 1 119.69902496392 76.556487660539
66	535609 9488 32 33602 0 30.108268673061 227 0 9.2211512818467 135.22621374888 441.54390080192
67	545097 6092 32 33602 0 30.108268673061 227 0 3 268 444
69	551189 7916 22 33520 0 29.952690796039 197 0.53333333333333 1 127.99831043769 83.822753707877
70	559105 10096 33 33521 0 29.952690796039 241 0.00079728395212442 9.7591855372302 138.97722422204 384.79631229381
71	569201 6492 33 33521 0 29.952690796039 241 0 3 292 464
