file 38969 1433095302                                           
version 2
run General-0-20150601-01:58:05-10454
attr configname General
attr datetime 20150601-01:58:05
attr experiment General
attr inifile omnetpp.ini
attr iterationvars ""
attr iterationvars2 $repetition=0
attr measurement ""
attr network Wsn
attr processid 10454
attr repetition 0
attr replication #0
attr resultdir results
attr runnumber 0
attr seedset 0

vector 26  Wsn.Sensor_0.queue  "rate of channel"  ETV
vector 29  Wsn.Sensor_1.queue  "rate of channel"  ETV
vector 32  Wsn.Sensor_2.queue  "rate of channel"  ETV
vector 35  Wsn.Sensor_3.queue  "rate of channel"  ETV
vector 38  Wsn.Sensor_4.queue  "rate of channel"  ETV
vector 41  Wsn.Sensor_5.queue  "rate of channel"  ETV
vector 44  Wsn.Sensor_6.queue  "rate of channel"  ETV
vector 47  Wsn.Sensor_7.queue  "rate of channel"  ETV
vector 50  Wsn.Sensor_8.queue  "rate of channel"  ETV
vector 53  Wsn.Sensor_9.queue  "rate of channel"  ETV
vector 56  Wsn.Sensor_10.queue  "rate of channel"  ETV
vector 27  Wsn.Sensor_0.control  time  ETV
vector 28  Wsn.Sensor_0.control  "length of the queue"  ETV
vector 30  Wsn.Sensor_1.control  time  ETV
vector 31  Wsn.Sensor_1.control  "length of the queue"  ETV
vector 33  Wsn.Sensor_2.control  time  ETV
vector 34  Wsn.Sensor_2.control  "length of the queue"  ETV
vector 36  Wsn.Sensor_3.control  time  ETV
vector 37  Wsn.Sensor_3.control  "length of the queue"  ETV
vector 39  Wsn.Sensor_4.control  time  ETV
vector 40  Wsn.Sensor_4.control  "length of the queue"  ETV
vector 42  Wsn.Sensor_5.control  time  ETV
vector 43  Wsn.Sensor_5.control  "length of the queue"  ETV
vector 45  Wsn.Sensor_6.control  time  ETV
vector 46  Wsn.Sensor_6.control  "length of the queue"  ETV
vector 48  Wsn.Sensor_7.control  time  ETV
vector 49  Wsn.Sensor_7.control  "length of the queue"  ETV
vector 51  Wsn.Sensor_8.control  time  ETV
vector 52  Wsn.Sensor_8.control  "length of the queue"  ETV
vector 54  Wsn.Sensor_9.control  time  ETV
vector 55  Wsn.Sensor_9.control  "length of the queue"  ETV
vector 57  Wsn.Sensor_10.control  time  ETV
vector 58  Wsn.Sensor_10.control  "length of the queue"  ETV
vector 19  Wsn.Sink2.queue  "rate of channel"  ETV
vector 15  Wsn.Sink.queue  "rate of channel"  ETV
vector 20  Wsn.Sink2.control  time  ETV
vector 21  Wsn.Sink2.control  "length of the queue"  ETV
vector 16  Wsn.Sink.control  time  ETV
vector 17  Wsn.Sink.control  "length of the queue"  ETV
15	2384 2900 86 2961 0.2040625 7.475888014262 82 0.86842105263158 1 74.658850556103 68.120644312404
16	5284 3247 92 2962 0.2040625 7.475888014262 114 0.001 0.001 0.114 0.000114
17	8531 2791 92 2962 0.2040625 7.475888014262 114 1 1 114 114
19	11322 3543 83 2924 0.2040625 7.357807181267 145 1 1 145 145
20	14865 3493 89 2925 0.2040625 7.357807181267 123 0.001 0.001 0.123 0.000123
21	18358 3001 89 2925 0.2040625 7.357807181267 123 1 1 123 123
26	21359 305 12 2816 0 7.079651014174 13 1 1 13 13
27	21664 357 23 2817 0 7.079651014174 13 0.001 0.001 0.013 1.3e-05
28	22021 305 23 2817 0 7.079651014174 13 1 1 13 13
29	22326 326 13 2811 0 7.07350317714 14 1 1 14 14
30	22652 382 24 2812 0 7.07350317714 14 0.001 0.001 0.014 1.4e-05
31	23034 326 24 2812 0 7.07350317714 14 1 1 14 14
32	23360 558 14 2931 0 7.386610155919 17 0.66666666666667 1 14.361873012608 12.234724306231
33	23918 531 25 2932 0 7.386610155919 19 0.001 0.001 0.019 1.9e-05
34	24449 455 25 2932 0 7.386610155919 19 1 1 19 19
35	24904 487 15 2749 0 6.884783074507 15 0.66666666666667 1 12.625843600844 10.72636736419
36	25391 501 26 2750 0 6.884783074507 18 0.001 0.001 0.018 1.8e-05
37	25892 429 26 2750 0 6.884783074507 18 1 1 18 18
38	26321 567 16 2727 0 6.840139131518 17 0.66666666666667 1 14.801028709852 12.990602989382
39	26888 470 27 2728 0 6.840139131518 17 0.001 0.001 0.017 1.7e-05
40	27358 402 27 2728 0 6.840139131518 17 1 1 17 17
41	27760 647 17 2945 0 7.397232844021 20 0.75 1 17.394887366675 15.219223707191
42	28407 672 28 2946 0 7.397232844021 24 0.001 0.001 0.024 2.4e-05
43	29079 576 28 2946 0 7.397232844021 24 1 1 24 24
44	29655 444 18 2912 0 7.322776516196 14 0.75 1 12.048065823066 10.45673773456
45	30099 440 29 2913 0 7.322776516196 16 0.001 0.001 0.016 1.6e-05
46	30539 376 29 2913 0 7.322776516196 16 1 1 16 16
47	30915 588 19 2776 0 6.978417377447 18 0.77777777777778 1 15.634095234831 13.678150232157
48	31503 609 30 2777 0 6.978417377447 22 0.001 0.001 0.022 2.2e-05
49	32112 521 30 2777 0 6.978417377447 22 1 1 22 22
50	32633 880 20 2939 0 7.395698605579 27 0.85185185185185 1 24.918742025848 23.068222672391
51	33513 991 31 2943 0 7.395698605579 35 0.001 0.001 0.035 3.5e-05
52	34504 851 31 2943 0 7.395698605579 35 1 1 35 35
53	35355 663 21 2934 0 7.389000492163 20 0.66666666666667 1 16.676200497988 14.005624839729
54	36018 586 32 2935 0 7.389000492163 21 0.001 0.001 0.021 2.1e-05
55	36604 502 32 2935 0 7.389000492163 21 1 1 21 21
56	37106 557 22 2890 0 7.271825514262 17 0.75 1 14.661873012608 12.731390972898
57	37663 703 33 2891 0 7.271825514262 25 0.001 0.001 0.025 2.5e-05
58	38366 603 33 2891 0 7.271825514262 25 1 1 25 25
