file 2668 1433168720                                            
version 2
run General-0-20150601-22:25:06-7736
attr configname General
attr datetime 20150601-22:25:06
attr experiment General
attr inifile omnetpp.ini
attr iterationvars ""
attr iterationvars2 $repetition=0
attr measurement ""
attr network Wsn
attr processid 7736
attr repetition 0
attr replication #0
attr resultdir results
attr runnumber 0
attr seedset 0

vector 26  Wsn.Sensor_0.queue  "rate of channel"  ETV
vector 29  Wsn.Sensor_1.queue  "rate of channel"  ETV
vector 32  Wsn.Sensor_2.queue  "rate of channel"  ETV
vector 35  Wsn.Sensor_3.queue  "rate of channel"  ETV
vector 38  Wsn.Sensor_4.queue  "rate of channel"  ETV
vector 41  Wsn.Sensor_5.queue  "rate of channel"  ETV
vector 44  Wsn.Sensor_6.queue  "rate of channel"  ETV
vector 47  Wsn.Sensor_7.queue  "rate of channel"  ETV
vector 50  Wsn.Sensor_8.queue  "rate of channel"  ETV
vector 53  Wsn.Sensor_9.queue  "rate of channel"  ETV
vector 56  Wsn.Sensor_10.queue  "rate of channel"  ETV
vector 27  Wsn.Sensor_0.control  time  ETV
vector 28  Wsn.Sensor_0.control  "length of the queue"  ETV
vector 30  Wsn.Sensor_1.control  time  ETV
vector 31  Wsn.Sensor_1.control  "length of the queue"  ETV
vector 33  Wsn.Sensor_2.control  time  ETV
vector 34  Wsn.Sensor_2.control  "length of the queue"  ETV
vector 36  Wsn.Sensor_3.control  time  ETV
vector 37  Wsn.Sensor_3.control  "length of the queue"  ETV
vector 39  Wsn.Sensor_4.control  time  ETV
vector 40  Wsn.Sensor_4.control  "length of the queue"  ETV
vector 42  Wsn.Sensor_5.control  time  ETV
vector 43  Wsn.Sensor_5.control  "length of the queue"  ETV
vector 45  Wsn.Sensor_6.control  time  ETV
vector 46  Wsn.Sensor_6.control  "length of the queue"  ETV
vector 48  Wsn.Sensor_7.control  time  ETV
vector 49  Wsn.Sensor_7.control  "length of the queue"  ETV
vector 51  Wsn.Sensor_8.control  time  ETV
vector 52  Wsn.Sensor_8.control  "length of the queue"  ETV
vector 54  Wsn.Sensor_9.control  time  ETV
vector 55  Wsn.Sensor_9.control  "length of the queue"  ETV
vector 57  Wsn.Sensor_10.control  time  ETV
vector 58  Wsn.Sensor_10.control  "length of the queue"  ETV
26	2139 11 12 12 0 0 1 1 1 1 1
27	2150 25 23 23 0 0 1 0.5288949215319 0.5288949215319 0.5288949215319 0.27972983802224
28	2175 11 23 23 0 0 1 0 0 0 0
29	2186 11 13 13 0 0 1 1 1 1 1
30	2197 26 24 24 0 0 1 0.47997717140242 0.47997717140242 0.47997717140242 0.23037808506747
31	2223 11 24 24 0 0 1 0 0 0 0
32	2234 11 14 14 0 0 1 1 1 1 1
33	2245 26 25 25 0 0 1 0.56804456375539 0.56804456375539 0.56804456375539 0.32267462641205
34	2271 11 25 25 0 0 1 0 0 0 0
35	2282 11 15 15 0 0 1 1 1 1 1
36	2293 26 26 26 0 0 1 0.39278479316272 0.39278479316272 0.39278479316272 0.15427989373988
37	2319 11 26 26 0 0 1 0 0 0 0
38	2330 11 16 16 0 0 1 1 1 1 1
39	2341 26 27 27 0 0 1 0.92559663322754 0.92559663322754 0.92559663322754 0.85672912744216
40	2367 11 27 27 0 0 1 0 0 0 0
41	2378 11 17 17 0 0 1 1 1 1 1
42	2389 26 28 28 0 0 1 0.83607876882888 0.83607876882888 0.83607876882888 0.69902770768642
43	2415 11 28 28 0 0 1 0 0 0 0
44	2426 11 18 18 0 0 1 1 1 1 1
45	2437 27 29 29 0 0 1 0.071036058710888 0.071036058710888 0.071036058710888 0.0050461216371767
46	2464 11 29 29 0 0 1 0 0 0 0
47	2475 11 19 19 0 0 1 1 1 1 1
48	2486 26 30 30 0 0 1 0.33739616163075 0.33739616163075 0.33739616163075 0.11383616988316
49	2512 11 30 30 0 0 1 0 0 0 0
50	2523 11 20 20 0 0 1 1 1 1 1
51	2534 26 31 31 0 0 1 0.08712929696776 0.08712929696776 0.08712929696776 0.0075915143900961
52	2560 11 31 31 0 0 1 0 0 0 0
53	2571 11 21 21 0 0 1 1 1 1 1
54	2582 26 32 32 0 0 1 0.64817187655717 0.64817187655717 0.64817187655717 0.42012678155964
55	2608 11 32 32 0 0 1 0 0 0 0
56	2619 11 22 22 0 0 1 1 1 1 1
57	2630 27 33 33 0 0 1 0.020218399120495 0.020218399120495 0.020218399120495 0.00040878366299562
58	2657 11 33 33 0 0 1 0 0 0 0
