version 2
run General-0-20150603-21:44:42-8440
attr configname General
attr datetime 20150603-21:44:42
attr experiment General
attr inifile omnetpp.ini
attr iterationvars ""
attr iterationvars2 $repetition=0
attr measurement ""
attr network Wsn
attr processid 8440
attr repetition 0
attr replication #0
attr resultdir results
attr runnumber 0
attr seedset 0

vector 29  Wsn.Sensor_0.queue  "rate of channel"  ETV
vector 33  Wsn.Sensor_1.queue  "rate of channel"  ETV
vector 37  Wsn.Sensor_2.queue  "rate of channel"  ETV
vector 41  Wsn.Sensor_3.queue  "rate of channel"  ETV
vector 45  Wsn.Sensor_4.queue  "rate of channel"  ETV
vector 49  Wsn.Sensor_5.queue  "rate of channel"  ETV
vector 53  Wsn.Sensor_6.queue  "rate of channel"  ETV
vector 57  Wsn.Sensor_7.queue  "rate of channel"  ETV
vector 61  Wsn.Sensor_8.queue  "rate of channel"  ETV
vector 65  Wsn.Sensor_9.queue  "rate of channel"  ETV
vector 69  Wsn.Sensor_10.queue  "rate of channel"  ETV
vector 30  Wsn.Sensor_0.control  time  ETV
vector 31  Wsn.Sensor_0.control  "length of the queue"  ETV
vector 34  Wsn.Sensor_1.control  time  ETV
vector 35  Wsn.Sensor_1.control  "length of the queue"  ETV
vector 38  Wsn.Sensor_2.control  time  ETV
vector 39  Wsn.Sensor_2.control  "length of the queue"  ETV
vector 42  Wsn.Sensor_3.control  time  ETV
vector 43  Wsn.Sensor_3.control  "length of the queue"  ETV
vector 46  Wsn.Sensor_4.control  time  ETV
vector 47  Wsn.Sensor_4.control  "length of the queue"  ETV
vector 50  Wsn.Sensor_5.control  time  ETV
vector 51  Wsn.Sensor_5.control  "length of the queue"  ETV
vector 54  Wsn.Sensor_6.control  time  ETV
vector 55  Wsn.Sensor_6.control  "length of the queue"  ETV
vector 58  Wsn.Sensor_7.control  time  ETV
vector 59  Wsn.Sensor_7.control  "length of the queue"  ETV
vector 62  Wsn.Sensor_8.control  time  ETV
vector 63  Wsn.Sensor_8.control  "length of the queue"  ETV
vector 66  Wsn.Sensor_9.control  time  ETV
vector 67  Wsn.Sensor_9.control  "length of the queue"  ETV
vector 70  Wsn.Sensor_10.control  time  ETV
vector 71  Wsn.Sensor_10.control  "length of the queue"  ETV
vector 15  Wsn.Sink.queue  "rate of channel"  ETV
vector 16  Wsn.Sink.control  time  ETV
vector 17  Wsn.Sink.control  "length of the queue"  ETV
vector 20  Wsn.Sink2.queue  "rate of channel"  ETV
vector 21  Wsn.Sink2.control  time  ETV
vector 22  Wsn.Sink2.control  "length of the queue"  ETV
vector 19  Wsn.Sink2.ret  num  ETV
vector 14  Wsn.Sink.ret  num  ETV
vector 24  Wsn.Gateway.ret  num  ETV
vector 25  Wsn.Gateway.queue  "rate of channel"  ETV
14	140	0.561364993391	1
14	263	0.887775472886	1
14	283	0.971418796045	1
14	356	1.207329858726	2
14	526	1.591201453406	2
14	609	1.773109525962	1
14	616	1.781837585659	1
14	731	2.008069772788	2
14	796	2.129413222592	2
14	885	2.30366078129	2
14	1039	2.674724796606	1
14	1155	2.984443971941	1
14	1223	3.100754594716	2
14	1282	3.255058378965	1
14	1403	3.505175863909	2
14	1470	3.625894844465	1
14	1517	3.745496686017	1
14	1530	3.78175100095	1
14	1658	4.023922879649	1
14	1694	4.093191729327	1
14	1778	4.2059662261	2
14	1855	4.322331013898	2
14	1862	4.324837031126	1
14	1880	4.353032667125	1
14	1917	4.413358390963	1
14	2307	5.010039315363	5
14	2331	5.037094904506	1
14	2535	5.295382686707	3
14	2635	5.397072742511	2
14	2657	5.409229314749	1
14	2664	5.410783026981	1
14	2692	5.418173649512	1
14	2719	5.431026161	1
14	2933	5.592457211622	2
14	2985	5.632844867091	1
14	3004	5.650640607391	1
14	3084	5.699610841506	2
14	3121	5.731234064649	1
14	3444	5.926107935044	1
14	3491	5.953778433739	2
14	3600	6.002267169574	2
14	3610	6.002671167982	1
14	3631	6.008532407041	2
14	3670	6.02567630151	1
14	3689	6.044793072738	1
14	3759	6.065570614219	2
14	3877	6.124339781435	1
14	4030	6.193716890553	1
14	4076	6.20582864107	1
14	4143	6.236116818076	3
14	4283	6.307667195052	3
14	4737	6.53532162181	4
14	4885	6.611868106342	2
14	4913	6.628079140928	1
14	4976	6.653766932709	1
14	4987	6.657918315474	1
14	5000	6.66670847013	1
14	5089	6.712602571625	1
14	5228	6.773690078359	2
14	5349	6.839820770264	2
14	5475	6.896438393995	4
14	5500	6.909310925678	1
14	5702	6.999992206431	2
14	5719	7.002202646406	1
14	5820	7.057835433202	1
14	5887	7.095158593725	2
14	5908	7.103112597175	1
14	6071	7.173842567359	2
14	6354	7.288328723289	3
14	6560	7.386865385448	3
14	6600	7.404260755578	2
14	6729	7.464573397015	1
14	6855	7.521025825161	1
14	7001	7.600384828463	2
14	7158	7.674035809266	2
14	7298	7.737977060709	1
14	7386	7.77833083212	2
14	7534	7.849132856135	2
14	7608	7.87887262254	1
14	7622	7.880624209517	1
14	7809	7.959519049885	1
14	8025	8.042680860718	4
14	8043	8.043958271978	1
14	8078	8.061114727606	1
14	8113	8.080013212407	1
14	8214	8.124729995692	1
14	8233	8.128864289636	1
14	8267	8.135878241444	1
14	8437	8.213961907395	1
14	8559	8.270655869912	2
14	8691	8.345515352069	2
14	8719	8.353467832659	2
14	8943	8.467051921959	4
14	8964	8.476775024983	1
14	9096	8.537723875962	2
14	9176	8.573366527523	2
14	9183	8.575052005755	1
14	9287	8.627472285095	1
14	9367	8.655712489826	1
14	9432	8.690499465828	1
14	9647	8.792931947092	4
14	9791	8.873478988546	2
14	9830	8.892257441795	1
14	9892	8.922501300849	1
14	10119	9.034166352409	3
14	10136	9.039465695623	1
14	10317	9.131631867247	4
14	10343	9.142625294021	1
14	10462	9.198513654859	1
14	10578	9.239248417694	3
14	10681	9.277335733338	1
14	10757	9.310212380316	2
14	10792	9.323275810666	2
14	10806	9.328628154035	1
14	10889	9.360496403228	1
14	10929	9.375943928747	1
14	11050	9.413897355248	1
14	11085	9.426259530054	1
14	11222	9.482345257466	2
14	11282	9.504353445681	2
14	11379	9.543143151236	1
14	11488	9.584822880087	3
14	11576	9.619292012655	1
14	11671	9.655342157364	2
14	11792	9.701006910395	1
14	11810	9.706953953678	1
14	12111	9.801060256606	4
14	12279	9.860638935657	3
14	12384	9.900635031772	1
14	12597	9.983106219322	3
14	12825	10.064151885097	5
14	13001	10.140963459877	4
14	13165	10.199035250052	2
14	13212	10.212762447522	1
14	13372	10.274154216978	2
14	13671	10.3879320785	4
14	13721	10.415184751357	1
14	13925	10.506557451794	1
14	14193	10.613910791134	5
14	14464	10.731748801784	5
14	14487	10.741575456823	1
14	14536	10.7615730073	1
14	14619	10.79229581389	1
14	14919	10.919158289122	2
14	14951	10.934324426683	2
14	15042	10.982037666909	1
14	15209	11.05325652198	2
14	15418	11.156819735005	3
14	15460	11.177682302449	3
14	15631	11.272885289318	3
14	15774	11.346173187242	1
14	16013	11.450959884032	3
14	16035	11.461655871716	2
14	16050	11.465796349498	1
14	16232	11.53802667097	2
14	16247	11.545293545662	1
14	16349	11.580401284401	1
14	16424	11.614881771894	1
14	16680	11.735238072909	4
14	16910	11.83660086575	5
14	16931	11.839485146685	2
14	17041	11.887373896709	1
14	17165	11.92639171155	2
14	17271	11.975236400164	2
14	17309	11.989402639435	2
14	17449	12.030753612387	1
14	17576	12.078663229289	1
14	17726	12.134684814343	2
14	17895	12.210248871607	6
14	18138	12.323619274406	4
14	18248	12.379135799885	1
14	18474	12.473950395382	2
14	18606	12.511816199288	3
14	18706	12.572042085095	2
14	18723	12.578936201378	1
14	19172	12.814016284122	5
14	19785	13.292953274368	9
14	19966	13.45885565963	1
14	20128	13.613604569738	3
14	20210	13.706802910637	3
14	20412	13.83609136852	3
14	20526	13.908139281506	1
14	20550	13.917489950124	1
14	20573	13.935730391709	1
14	20626	13.96845601694	1
14	20892	14.15116154776	4
14	21002	14.241594584026	1
14	21089	14.305886007155	2
14	21120	14.323100674637	1
14	21313	14.473665112434	3
14	21324	14.480076835687	1
14	21483	14.633966894624	3
14	21607	14.7456317278	3
14	21614	14.746766496105	1
14	21650	14.761085545993	1
14	21945	15.004521582894	5
14	22203	15.224058437217	3
14	22339	15.348448307201	2
14	22382	15.397407163175	2
14	22453	15.440886790364	1
14	22797	15.770977395198	3
14	22937	15.899718716772	2
14	23088	16.035816892915	2
14	23330	16.336017738264	1
14	23534	16.538585368607	2
14	23851	16.860342286017	2
14	23858	16.863263456211	1
14	23995	16.995702907353	1
14	24217	17.199302500639	1
14	24292	17.285282014293	2
14	24316	17.319507570766	1
14	24481	17.582072491814	1
14	24596	17.72690266776	2
14	24603	17.737129871534	1
14	24677	17.814624032589	1
14	24996	18.243858619304	2
14	25148	18.428465431587	2
14	25181	18.49343806101	1
14	25579	19.009821706859	2
14	25609	19.092182710771	1
14	25616	19.095740894209	1
14	25843	19.467885524791	2
14	25882	19.535162282757	1
14	25978	19.679839083374	1
14	26234	20.028539824585	3
14	26272	20.092509817791	1
14	26286	20.112866267502	1
14	26485	20.34705260955	3
14	26608	20.488309849675	2
14	26636	20.514102156425	1
14	26890	20.773575144966	4
14	27224	21.142641100595	5
14	27314	21.232726470041	1
14	27352	21.265861776565	1
14	27534	21.475790805978	1
14	27546	21.48102003039	1
14	27765	21.737495531002	4
14	27833	21.807446785154	2
14	27885	21.858305720782	2
14	27918	21.880844184754	1
14	27931	21.899968641122	1
14	28350	22.452597156718	8
14	28364	22.469266124941	1
14	28483	22.620213942309	2
14	29013	23.255789885727	6
14	29435	23.923219742911	4
14	29481	24.003482907596	2
14	29606	24.182180001921	2
14	29696	24.345960392782	4
14	29757	24.437581969009	2
14	29833	24.507524137644	1
14	29883	24.570447160212	1
14	30006	24.756441592293	3
14	30066	24.855737713914	1
14	30292	25.123873518014	1
14	30344	25.166656353887	2
14	30360	25.198164297627	1
14	30427	25.268076366557	1
14	30468	25.33175907051	1
14	30479	25.335103915587	1
14	30891	25.835402530274	5
14	30984	25.949918150662	2
14	31015	26.015926570773	1
14	31356	26.502676592461	3
14	31365	26.518094916062	1
14	31504	26.674623825287	2
14	31566	26.756832069537	1
14	31651	26.920044980473	2
14	31811	27.162995350072	2
14	31820	27.169487236324	1
14	31827	27.172746798949	1
14	31976	27.351008284535	1
14	32031	27.421747093773	2
14	32051	27.445802397729	1
14	32237	27.751740320255	1
14	32414	28.078011795859	1
14	32444	28.130315199837	1
14	32502	28.221046462187	1
14	32525	28.241356857841	1
14	32534	28.260342106361	1
14	32618	28.348062871425	1
14	32665	28.406870459603	1
14	32679	28.418818543562	1
14	32808	28.654152286372	1
14	32895	28.770850380696	1
14	33254	29.518183675032	2
14	33319	29.629523694973	1
14	33454	29.848628296039	1
14	33579	30.063572847886	1
14	33647	30.221899018637	2
15	47	0.11417169956	1
15	71	0.272760580815	1
15	107	0.428148438278	1
15	141	0.561364993391	1
15	142	0.561364993391	1
15	179	0.636273438278	0.83333333333333
15	224	0.769489993391	0.71428571428571
15	260	0.881685797062	0.75
15	264	0.887775472886	0.77777777777778
15	265	0.887775472886	0.8
15	284	0.971418796045	0.81818181818182
15	285	0.971418796045	0.83333333333333
15	291	0.981906372642	0.84615384615385
15	357	1.207329858726	0.85714285714286
15	358	1.207329858726	0.86666666666667
15	477	1.475255137588	0.8125
15	507	1.514872926221	0.76470588235294
15	521	1.577935191042	0.77777777777778
15	527	1.591201453406	0.78947368421053
15	528	1.591201453406	0.8
15	552	1.61436523455	0.80952380952381
15	603	1.765970839707	0.81818181818182
15	610	1.773109525962	0.82608695652174
15	611	1.773109525962	0.83333333333333
15	617	1.781837585659	0.84
15	618	1.781837585659	0.84615384615385
15	631	1.805089088326	0.85185185185185
15	660	1.867027235736	0.85714285714286
15	732	2.008069772788	0.86206896551724
15	733	2.008069772788	0.86666666666667
15	751	2.0380380997	0.87096774193548
15	797	2.129413222592	0.875
15	798	2.129413222592	0.87878787878788
15	841	2.190416358799	0.88235294117647
15	874	2.277368273284	0.85714285714286
15	886	2.30366078129	0.86111111111111
15	887	2.30366078129	0.86486486486486
15	1018	2.619453852459	0.84210526315789
15	1027	2.627591497192	0.82051282051282
15	1040	2.674724796606	0.825
15	1041	2.674724796606	0.82926829268293
15	1156	2.984443971941	0.83333333333333
15	1157	2.984443971941	0.83720930232558
15	1185	3.029297489609	0.84090909090909
15	1224	3.100754594716	0.84444444444444
15	1225	3.100754594716	0.84782608695652
15	1283	3.255058378965	0.85106382978723
15	1284	3.255058378965	0.85416666666667
15	1290	3.26499285321	0.85714285714286
15	1366	3.40010886679	0.86
15	1404	3.505175863909	0.86274509803922
15	1405	3.505175863909	0.86538461538462
15	1433	3.55290773702	0.84905660377358
15	1463	3.616575375942	0.83333333333333
15	1471	3.625894844465	0.83636363636364
15	1472	3.625894844465	0.83928571428571
15	1505	3.721653620298	0.84210526315789
15	1518	3.745496686017	0.8448275862069
15	1519	3.745496686017	0.84745762711864
15	1531	3.78175100095	0.85
15	1532	3.78175100095	0.85245901639344
15	1604	3.918546934658	0.85483870967742
15	1659	4.023922879649	0.85714285714286
15	1660	4.023922879649	0.859375
15	1691	4.084272533707	0.86153846153846
15	1695	4.093191729327	0.86363636363636
15	1696	4.093191729327	0.86567164179104
15	1775	4.205950024811	0.86764705882353
15	1779	4.2059662261	0.8695652173913
15	1780	4.2059662261	0.87142857142857
15	1801	4.235759243408	0.85915492957746
15	1814	4.251947430471	0.84722222222222
15	1852	4.320479589559	0.84931506849315
15	1856	4.322331013898	0.85135135135135
15	1857	4.322331013898	0.85333333333333
15	1863	4.324837031126	0.85526315789474
15	1864	4.324837031126	0.85714285714286
15	1881	4.353032667125	0.85897435897436
15	1882	4.353032667125	0.86075949367089
15	1918	4.413358390963	0.8625
15	1919	4.413358390963	0.8641975308642
15	2021	4.589637254061	0.86585365853659
15	2051	4.642546937023	0.86746987951807
15	2071	4.663983925756	0.86904761904762
15	2114	4.762031443579	0.87058823529412
15	2227	4.9073686244	0.87209302325581
15	2235	4.91445634053	0.86206896551724
15	2269	4.957457385144	0.85227272727273
15	2280	4.983640005501	0.84269662921348
15	2308	5.010039315363	0.84444444444444
15	2309	5.010039315363	0.84615384615385
15	2332	5.037094904506	0.84782608695652
15	2333	5.037094904506	0.8494623655914
15	2481	5.247342491438	0.85106382978723
15	2499	5.253430173085	0.85263157894737
15	2536	5.295382686707	0.85416666666667
15	2537	5.295382686707	0.85567010309278
15	2590	5.334874443159	0.85714285714286
15	2596	5.352407592809	0.84848484848485
15	2636	5.397072742511	0.85
15	2637	5.397072742511	0.85148514851485
15	2643	5.397218052912	0.85294117647059
15	2658	5.409229314749	0.85436893203883
15	2659	5.409229314749	0.85576923076923
15	2665	5.410783026981	0.85714285714286
15	2666	5.410783026981	0.85849056603774
15	2693	5.418173649512	0.85981308411215
15	2694	5.418173649512	0.86111111111111
15	2720	5.431026161	0.86238532110092
15	2721	5.431026161	0.86363636363636
15	2734	5.434748352431	0.86486486486486
15	2825	5.518647745441	0.86607142857143
15	2832	5.518869738906	0.85840707964602
15	2893	5.563048448096	0.85964912280702
15	2934	5.592457211622	0.86086956521739
15	2935	5.592457211622	0.86206896551724
15	2986	5.632844867091	0.86324786324786
15	2987	5.632844867091	0.86440677966102
15	3005	5.650640607391	0.86554621848739
15	3006	5.650640607391	0.86666666666667
15	3012	5.653894279784	0.86776859504132
15	3028	5.66421067729	0.86065573770492
15	3085	5.699610841506	0.86178861788618
15	3086	5.699610841506	0.86290322580645
15	3095	5.702523188144	0.856
15	3122	5.731234064649	0.85714285714286
15	3123	5.731234064649	0.85826771653543
15	3153	5.746522985121	0.859375
15	3191	5.771299075499	0.86046511627907
15	3257	5.809881901259	0.86153846153846
15	3445	5.926107935044	0.86259541984733
15	3446	5.926107935044	0.86363636363636
15	3454	5.931659175709	0.86466165413534
15	3458	5.932608396437	0.86567164179104
15	3492	5.953778433739	0.86666666666667
15	3493	5.953778433739	0.86764705882353
15	3514	5.96247603074	0.86861313868613
15	3553	5.979884860084	0.8695652173913
15	3601	6.002267169574	0.8705035971223
15	3602	6.002267169574	0.87142857142857
15	3611	6.002671167982	0.87234042553191
15	3612	6.002671167982	0.87323943661972
15	3628	6.007536742326	0.87412587412587
15	3632	6.008532407041	0.875
15	3633	6.008532407041	0.87586206896552
15	3671	6.02567630151	0.87671232876712
15	3672	6.02567630151	0.87755102040816
15	3690	6.044793072738	0.87837837837838
15	3691	6.044793072738	0.87919463087248
15	3735	6.058961458414	0.88
15	3748	6.061948493358	0.88079470198675
15	3760	6.065570614219	0.88157894736842
15	3761	6.065570614219	0.88235294117647
15	3769	6.066635900761	0.87662337662338
15	3842	6.104928806271	0.87741935483871
15	3866	6.120298595318	0.87820512820513
15	3878	6.124339781435	0.87898089171975
15	3879	6.124339781435	0.87974683544304
15	3969	6.163833610135	0.88050314465409
15	4009	6.175814982012	0.875
15	4031	6.193716890553	0.87577639751553
15	4032	6.193716890553	0.87654320987654
15	4060	6.201763068784	0.87116564417178
15	4077	6.20582864107	0.8719512195122
15	4078	6.20582864107	0.87272727272727
15	4119	6.224591178105	0.87349397590361
15	4125	6.225158567728	0.87425149700599
15	4144	6.236116818076	0.875
15	4145	6.236116818076	0.87573964497041
15	4186	6.262984241516	0.87058823529412
15	4199	6.264685185174	0.87134502923977
15	4203	6.264691565692	0.87209302325581
15	4284	6.307667195052	0.8728323699422
15	4285	6.307667195052	0.8735632183908
15	4453	6.378751421044	0.87428571428571
15	4495	6.397289090471	0.86931818181818
15	4575	6.443787929323	0.86440677966102
15	4581	6.445197267085	0.85955056179775
15	4613	6.465460180747	0.86033519553073
15	4632	6.481539698147	0.86111111111111
15	4658	6.487612505715	0.86187845303867
15	4666	6.488524177923	0.85714285714286
15	4738	6.53532162181	0.85792349726776
15	4739	6.53532162181	0.85869565217391
15	4749	6.538925857299	0.85405405405405
15	4786	6.555092818954	0.85483870967742
15	4790	6.555918600091	0.85026737967914
15	4856	6.598137905379	0.85106382978723
15	4886	6.611868106342	0.85185185185185
15	4887	6.611868106342	0.85263157894737
15	4914	6.628079140928	0.85340314136126
15	4915	6.628079140928	0.85416666666667
15	4977	6.653766932709	0.85492227979275
15	4978	6.653766932709	0.85567010309278
15	4988	6.657918315474	0.85641025641026
15	4989	6.657918315474	0.85714285714286
15	5001	6.66670847013	0.85786802030457
15	5002	6.66670847013	0.85858585858586
15	5020	6.674345518806	0.85929648241206
15	5083	6.708430381926	0.86
15	5090	6.712602571625	0.86069651741294
15	5091	6.712602571625	0.86138613861386
15	5152	6.739976217418	0.86206896551724
15	5161	6.743670318789	0.86274509803922
15	5203	6.76427203845	0.86341463414634
15	5229	6.773690078359	0.86407766990291
15	5230	6.773690078359	0.86473429951691
15	5277	6.793824328807	0.86538461538462
15	5350	6.839820770264	0.86602870813397
15	5351	6.839820770264	0.86666666666667
15	5360	6.841089000757	0.86729857819905
15	5424	6.876104874578	0.86792452830189
15	5439	6.883436854323	0.86854460093897
15	5453	6.888055697057	0.86915887850467
15	5476	6.896438393995	0.86976744186047
15	5477	6.896438393995	0.87037037037037
15	5501	6.909310925678	0.87096774193548
15	5502	6.909310925678	0.87155963302752
15	5526	6.914485670571	0.87214611872146
15	5588	6.939511352953	0.87272727272727
15	5703	6.999992206431	0.87330316742081
15	5704	6.999992206431	0.87387387387387
15	5720	7.002202646406	0.87443946188341
15	5721	7.002202646406	0.875
15	5749	7.01732907432	0.87555555555556
15	5797	7.04069704666	0.8716814159292
15	5821	7.057835433202	0.87224669603524
15	5822	7.057835433202	0.87280701754386
15	5860	7.080033816789	0.87336244541485
15	5874	7.088090609521	0.87391304347826
15	5888	7.095158593725	0.87445887445887
15	5889	7.095158593725	0.875
15	5901	7.100052088575	0.8755364806867
15	5909	7.103112597175	0.87606837606838
15	5910	7.103112597175	0.87659574468085
15	5980	7.127221016276	0.8771186440678
15	6015	7.1420109732	0.87763713080169
15	6072	7.173842567359	0.8781512605042
15	6073	7.173842567359	0.87866108786611
15	6166	7.211918572117	0.875
15	6261	7.258134423563	0.87551867219917
15	6324	7.279690897577	0.87603305785124
15	6355	7.288328723289	0.87654320987654
15	6356	7.288328723289	0.87704918032787
15	6364	7.292380369563	0.87755102040816
15	6381	7.302471459981	0.8780487804878
15	6438	7.330601751034	0.87854251012146
15	6561	7.386865385448	0.87903225806452
15	6562	7.386865385448	0.87951807228916
15	6570	7.387710881223	0.88
15	6601	7.404260755578	0.8804780876494
15	6602	7.404260755578	0.88095238095238
15	6685	7.45259042677	0.88142292490119
15	6730	7.464573397015	0.88188976377953
15	6731	7.464573397015	0.88235294117647
15	6749	7.471629932261	0.87890625
15	6856	7.521025825161	0.87937743190661
15	6857	7.521025825161	0.87984496124031
15	6919	7.559359301231	0.88030888030888
15	6930	7.560924692164	0.87692307692308
15	7002	7.600384828463	0.87739463601533
15	7003	7.600384828463	0.87786259541985
15	7059	7.624314125542	0.8745247148289
15	7063	7.624794939528	0.875
15	7106	7.642542407383	0.87547169811321
15	7159	7.674035809266	0.87593984962406
15	7160	7.674035809266	0.87640449438202
15	7203	7.692780491465	0.87686567164179
15	7239	7.710857249297	0.87360594795539
15	7285	7.732640894402	0.87037037037037
15	7299	7.737977060709	0.87084870848708
15	7300	7.737977060709	0.87132352941176
15	7323	7.747274933419	0.87179487179487
15	7327	7.747334487406	0.87226277372263
15	7387	7.77833083212	0.87272727272727
15	7388	7.77833083212	0.8731884057971
15	7471	7.824241128736	0.87364620938628
15	7475	7.824344358116	0.87410071942446
15	7535	7.849132856135	0.87455197132616
15	7536	7.849132856135	0.875
15	7609	7.87887262254	0.87544483985765
15	7610	7.87887262254	0.8758865248227
15	7616	7.879189491499	0.87632508833922
15	7623	7.880624209517	0.87676056338028
15	7624	7.880624209517	0.87719298245614
15	7806	7.959149501369	0.87762237762238
15	7810	7.959519049885	0.8780487804878
15	7811	7.959519049885	0.87847222222222
15	7817	7.960099818177	0.87889273356401
15	7826	7.963991964665	0.87931034482759
15	7897	7.985382896327	0.87972508591065
15	7960	8.014801559747	0.87671232876712
15	7985	8.028057739705	0.87713310580205
15	7989	8.028166867475	0.87755102040816
15	8026	8.042680860718	0.87796610169492
15	8027	8.042680860718	0.87837837837838
15	8044	8.043958271978	0.87878787878788
15	8045	8.043958271978	0.87919463087248
15	8051	8.044425202515	0.87959866220736
15	8079	8.061114727606	0.88
15	8080	8.061114727606	0.88039867109635
15	8097	8.072145489923	0.87748344370861
15	8114	8.080013212407	0.87788778877888
15	8115	8.080013212407	0.87828947368421
15	8180	8.113374043944	0.87540983606557
15	8215	8.124729995692	0.87581699346405
15	8216	8.124729995692	0.87622149837134
15	8230	8.12817065011	0.87662337662338
15	8234	8.128864289636	0.87702265372168
15	8235	8.128864289636	0.87741935483871
15	8241	8.129631722636	0.87781350482315
15	8268	8.135878241444	0.87820512820513
15	8269	8.135878241444	0.87859424920128
15	8303	8.147709221964	0.87579617834395
15	8408	8.195540155704	0.87301587301587
15	8432	8.211166022847	0.87341772151899
15	8438	8.213961907395	0.87381703470032
15	8439	8.213961907395	0.87421383647799
15	8468	8.222750175566	0.87460815047022
15	8556	8.269830924487	0.875
15	8560	8.270655869912	0.87538940809969
15	8561	8.270655869912	0.87577639751553
15	8592	8.283315692033	0.87616099071207
15	8692	8.345515352069	0.87654320987654
15	8693	8.345515352069	0.87692307692308
15	8704	8.35297890015	0.87730061349693
15	8720	8.353467832659	0.87767584097859
15	8721	8.353467832659	0.8780487804878
15	8754	8.367890918725	0.87841945288754
15	8784	8.381390920357	0.87878787878788
15	8851	8.424639407252	0.87915407854985
15	8916	8.457329914443	0.87650602409639
15	8938	8.464727883204	0.87687687687688
15	8944	8.467051921959	0.87724550898204
15	8945	8.467051921959	0.87761194029851
15	8965	8.476775024983	0.87797619047619
15	8966	8.476775024983	0.87833827893175
15	8972	8.477132625744	0.87869822485207
15	9097	8.537723875962	0.87905604719764
15	9098	8.537723875962	0.87941176470588
15	9136	8.561150793546	0.87683284457478
15	9145	8.563288944317	0.87719298245614
15	9177	8.573366527523	0.87755102040816
15	9178	8.573366527523	0.87790697674419
15	9184	8.575052005755	0.87826086956522
15	9185	8.575052005755	0.87861271676301
15	9237	8.600522514693	0.87896253602305
15	9288	8.627472285095	0.87931034482759
15	9289	8.627472285095	0.87965616045845
15	9368	8.655712489826	0.88
15	9369	8.655712489826	0.88034188034188
15	9433	8.690499465828	0.88068181818182
15	9434	8.690499465828	0.88101983002833
15	9458	8.698188844179	0.87853107344633
15	9477	8.709787093688	0.87887323943662
15	9487	8.720179128188	0.87921348314607
15	9584	8.759881096515	0.87955182072829
15	9633	8.784084565074	0.87988826815642
15	9648	8.792931947092	0.88022284122563
15	9649	8.792931947092	0.88055555555556
15	9663	8.796493122283	0.8808864265928
15	9725	8.847660362347	0.88121546961326
15	9744	8.857833971446	0.87878787878788
15	9792	8.873478988546	0.87912087912088
15	9793	8.873478988546	0.87945205479452
15	9831	8.892257441795	0.87978142076503
15	9832	8.892257441795	0.88010899182561
15	9893	8.922501300849	0.8804347826087
15	9894	8.922501300849	0.88075880758808
15	9913	8.928143837197	0.88108108108108
15	9953	8.956790293645	0.88140161725067
15	9987	8.974302778468	0.87903225806452
15	10114	9.029447881929	0.87935656836461
15	10120	9.034166352409	0.87967914438503
15	10121	9.034166352409	0.88
15	10137	9.039465695623	0.88031914893617
15	10138	9.039465695623	0.88063660477454
15	10177	9.059607941524	0.88095238095238
15	10181	9.062461183189	0.88126649076517
15	10185	9.063684125619	0.88157894736842
15	10194	9.066915332124	0.88188976377953
15	10318	9.131631867247	0.88219895287958
15	10319	9.131631867247	0.88250652741514
15	10344	9.142625294021	0.8828125
15	10345	9.142625294021	0.88311688311688
15	10463	9.198513654859	0.88341968911917
15	10464	9.198513654859	0.88372093023256
15	10470	9.202243542324	0.8840206185567
15	10513	9.217204364486	0.88431876606684
15	10537	9.221654996085	0.88205128205128
15	10579	9.239248417694	0.88235294117647
15	10580	9.239248417694	0.88265306122449
15	10600	9.246184914497	0.88295165394402
15	10656	9.269256085113	0.88324873096447
15	10682	9.277335733338	0.88354430379747
15	10683	9.277335733338	0.88383838383838
15	10689	9.280152159187	0.8816120906801
15	10697	9.281756242788	0.88190954773869
15	10758	9.310212380316	0.88220551378446
15	10759	9.310212380316	0.8825
15	10765	9.310298336792	0.88279301745636
15	10793	9.323275810666	0.88308457711443
15	10794	9.323275810666	0.8833746898263
15	10807	9.328628154035	0.88366336633663
15	10808	9.328628154035	0.88395061728395
15	10821	9.331887172895	0.88423645320197
15	10827	9.334920836915	0.88206388206388
15	10890	9.360496403228	0.88235294117647
15	10891	9.360496403228	0.88264058679707
15	10930	9.375943928747	0.88292682926829
15	10931	9.375943928747	0.88321167883212
15	10937	9.376954280912	0.88106796116505
15	10968	9.388066058912	0.88135593220339
15	11051	9.413897355248	0.88164251207729
15	11052	9.413897355248	0.88192771084337
15	11086	9.426259530054	0.88221153846154
15	11087	9.426259530054	0.88249400479616
15	11104	9.429478414755	0.88277511961722
15	11130	9.439925634708	0.88305489260143
15	11152	9.452448328821	0.88333333333333
15	11223	9.482345257466	0.88361045130641
15	11224	9.482345257466	0.88388625592417
15	11245	9.488613399895	0.88416075650118
15	11261	9.493722450479	0.88443396226415
15	11283	9.504353445681	0.88470588235294
15	11284	9.504353445681	0.8849765258216
15	11308	9.512148935126	0.88290398126464
15	11366	9.534587545901	0.88317757009346
15	11380	9.543143151236	0.88344988344988
15	11381	9.543143151236	0.88372093023256
15	11392	9.550054834261	0.88399071925754
15	11425	9.564223373006	0.88425925925926
15	11461	9.572261910575	0.88452655889145
15	11489	9.584822880087	0.88479262672811
15	11490	9.584822880087	0.88505747126437
15	11498	9.586164637006	0.88532110091743
15	11570	9.618539149634	0.88329519450801
15	11577	9.619292012655	0.88356164383562
15	11578	9.619292012655	0.88382687927107
15	11627	9.640033528092	0.88409090909091
15	11660	9.651143452625	0.8843537414966
15	11672	9.655342157364	0.88461538461538
15	11673	9.655342157364	0.88487584650113
15	11772	9.687418715589	0.88288288288288
15	11793	9.701006910395	0.88314606741573
15	11794	9.701006910395	0.88340807174888
15	11800	9.701336394704	0.88366890380313
15	11811	9.706953953678	0.88392857142857
15	11812	9.706953953678	0.88418708240535
15	11847	9.713019478281	0.88444444444444
15	11889	9.725822284839	0.88470066518847
15	12081	9.78832433303	0.88274336283186
15	12089	9.789847528368	0.88300220750552
15	12112	9.801060256606	0.88325991189427
15	12113	9.801060256606	0.88351648351648
15	12176	9.819870338594	0.88157894736842
15	12180	9.822492706795	0.88183807439825
15	12190	9.826326278249	0.882096069869
15	12266	9.857256808052	0.880174291939
15	12280	9.860638935657	0.8804347826087
15	12281	9.860638935657	0.88069414316703
15	12297	9.866206916192	0.88095238095238
15	12385	9.900635031772	0.88120950323974
15	12386	9.900635031772	0.88146551724138
15	12502	9.941270211946	0.88172043010753
15	12537	9.954580877809	0.88197424892704
15	12598	9.983106219322	0.88222698072805
15	12599	9.983106219322	0.88247863247863
15	12616	9.990244704676	0.88059701492537
15	12622	9.992361707654	0.88085106382979
15	12626	9.992820863679	0.87898089171975
15	12670	10.005371222789	0.87923728813559
15	12676	10.006454196208	0.87737843551797
15	12688	10.007836403049	0.87552742616034
15	12708	10.019753932948	0.87578947368421
15	12741	10.03704936239	0.87605042016807
15	12826	10.064151885097	0.87631027253669
15	12827	10.064151885097	0.8765690376569
15	12859	10.073987391547	0.8768267223382
15	12863	10.074772194388	0.87708333333333
15	12901	10.092503454584	0.87733887733888
15	12977	10.125290134974	0.87759336099585
15	13002	10.140963459877	0.87784679089027
15	13003	10.140963459877	0.87809917355372
15	13013	10.145331594585	0.87628865979381
15	13134	10.183388735241	0.87654320987654
15	13166	10.199035250052	0.87679671457906
15	13167	10.199035250052	0.87704918032787
15	13213	10.212762447522	0.87730061349693
15	13214	10.212762447522	0.87755102040816
15	13226	10.214743059106	0.87780040733198
15	13243	10.220946944523	0.8780487804878
15	13325	10.253109910125	0.87829614604462
15	13373	10.274154216978	0.87854251012146
15	13374	10.274154216978	0.87878787878788
15	13537	10.338550795569	0.87903225806452
15	13648	10.379451215243	0.87927565392354
15	13652	10.379490935035	0.87951807228916
15	13668	10.387734847829	0.87975951903808
15	13672	10.3879320785	0.88
15	13673	10.3879320785	0.88023952095808
15	13707	10.408316671381	0.87848605577689
15	13722	10.415184751357	0.87872763419483
15	13723	10.415184751357	0.87896825396825
15	13806	10.452542286084	0.87920792079208
15	13870	10.480416856875	0.87944664031621
15	13926	10.506557451794	0.87968441814596