version 2
run General-0-20150529-11:19:11-3935
attr configname General
attr datetime 20150529-11:19:11
attr experiment General
attr inifile omnetpp.ini
attr iterationvars ""
attr iterationvars2 $repetition=0
attr measurement ""
attr network Wsn
attr processid 3935
attr repetition 0
attr replication #0
attr resultdir results
attr runnumber 0
attr seedset 0

vector 20  Wsn.node[0].queue  "rate of channel"  ETV
vector 23  Wsn.node[1].queue  "rate of channel"  ETV
vector 26  Wsn.node[2].queue  "rate of channel"  ETV
vector 29  Wsn.node[3].queue  "rate of channel"  ETV
vector 32  Wsn.node[4].queue  "rate of channel"  ETV
vector 35  Wsn.node[5].queue  "rate of channel"  ETV
vector 38  Wsn.node[6].queue  "rate of channel"  ETV
vector 41  Wsn.node[7].queue  "rate of channel"  ETV
vector 44  Wsn.node[8].queue  "rate of channel"  ETV
vector 47  Wsn.node[9].queue  "rate of channel"  ETV
vector 21  Wsn.node[0].control  time  ETV
vector 22  Wsn.node[0].control  "length of the queue"  ETV
vector 24  Wsn.node[1].control  time  ETV
vector 25  Wsn.node[1].control  "length of the queue"  ETV
vector 27  Wsn.node[2].control  time  ETV
vector 28  Wsn.node[2].control  "length of the queue"  ETV
vector 30  Wsn.node[3].control  time  ETV
vector 31  Wsn.node[3].control  "length of the queue"  ETV
vector 33  Wsn.node[4].control  time  ETV
vector 34  Wsn.node[4].control  "length of the queue"  ETV
vector 36  Wsn.node[5].control  time  ETV
vector 37  Wsn.node[5].control  "length of the queue"  ETV
vector 39  Wsn.node[6].control  time  ETV
vector 40  Wsn.node[6].control  "length of the queue"  ETV
vector 42  Wsn.node[7].control  time  ETV
vector 43  Wsn.node[7].control  "length of the queue"  ETV
vector 45  Wsn.node[8].control  time  ETV
vector 46  Wsn.node[8].control  "length of the queue"  ETV
vector 48  Wsn.node[9].control  time  ETV
vector 49  Wsn.node[9].control  "length of the queue"  ETV
vector 17  Wsn.transfer.queue  "rate of channel"  ETV
vector 18  Wsn.transfer.control  time  ETV
vector 19  Wsn.transfer.control  "length of the queue"  ETV
vector 13  Wsn.sink.queue  "rate of channel"  ETV
vector 14  Wsn.sink.control  time  ETV
vector 15  Wsn.sink.control  "length of the queue"  ETV
13	412	2.480781294517	1
13	452	2.592506708223	1
13	453	2.592506708223	1
13	473	2.646010382678	1
14	413	2.480781294517	1.7622064016759
14	454	2.592506708223	0
14	474	2.646010382678	0
15	413	2.480781294517	1
15	454	2.592506708223	2
15	474	2.646010382678	3
17	85	1.160775475725	1
17	95	1.246134617421	1
17	121	1.376718794517	1
17	142	1.488444208223	1
17	146	1.541947882678	1
17	147	1.541947882678	1
17	153	1.581727611655	1
17	172	1.696907116388	1
17	181	1.727626196397	1
17	190	1.778854823261	1
17	191	1.778854823261	1
17	199	1.808947352282	1
17	200	1.808947352282	1
17	212	1.870979481897	1
17	213	1.870979481897	1
17	228	1.889632086325	1
17	229	1.889632086325	1
17	244	1.94832824409	1
17	252	1.962008119849	1
17	274	2.064016842804	1
17	275	2.064016842804	1
17	292	2.161852343063	1
17	293	2.161852343063	1
17	310	2.209338637357	1
17	311	2.209338637357	1
17	325	2.24015162751	1
17	338	2.285641423015	1
17	339	2.285641423015	1
17	354	2.342858635177	1
17	360	2.35698197415	1
17	361	2.35698197415	1
17	381	2.417539767975	1
17	382	2.417539767975	1
17	388	2.442138986717	1
17	389	2.442138986717	1
17	406	2.467062551118	1
17	431	2.569107357933	1
17	432	2.569107357933	1
17	438	2.572639348972	1
17	439	2.572639348972	1
18	86	1.160775475725	0.71901580411941
18	96	1.246134617421	0
18	122	1.376718794517	0
18	143	1.488444208223	0
18	148	1.541947882678	0
18	154	1.581727611655	0
18	173	1.696907116388	0
18	182	1.727626196397	0
18	192	1.778854823261	0
18	201	1.808947352282	0
18	214	1.870979481897	0
18	230	1.889632086325	0
18	245	1.94832824409	0
18	253	1.962008119849	0
18	276	2.064016842804	0
18	294	2.161852343063	0
18	312	2.209338637357	0
18	326	2.24015162751	0
18	340	2.285641423015	0
18	355	2.342858635177	0
18	362	2.35698197415	0
18	383	2.417539767975	0
18	390	2.442138986717	0
18	407	2.467062551118	0
18	433	2.569107357933	0
18	440	2.572639348972	0
19	86	1.160775475725	1
19	96	1.246134617421	2
19	122	1.376718794517	3
19	143	1.488444208223	4
19	148	1.541947882678	5
19	154	1.581727611655	6
19	173	1.696907116388	7
19	182	1.727626196397	8
19	192	1.778854823261	9
19	201	1.808947352282	10
19	214	1.870979481897	11
19	230	1.889632086325	12
19	245	1.94832824409	13
19	253	1.962008119849	14
19	276	2.064016842804	15
19	294	2.161852343063	16
19	312	2.209338637357	17
19	326	2.24015162751	18
19	340	2.285641423015	18
19	355	2.342858635177	19
19	362	2.35698197415	20
19	383	2.417539767975	20
19	390	2.442138986717	21
19	407	2.467062551118	22
19	433	2.569107357933	21
19	440	2.572639348972	22
20	11	0	1
20	50	0.592844616388	1
20	111	1.313477267975	1
20	224	1.883674043927	1
20	304	2.179814243221	1
20	417	2.521602267975	0.83333333333333
21	21	0	1.583450066857
21	51	0.592844616388	0
21	112	1.313477267975	0
21	225	1.883674043927	0
21	305	2.179814243221	0
21	418	2.521602267975	0
22	21	0	1
22	51	0.592844616388	2
22	112	1.313477267975	3
22	225	1.883674043927	3
22	305	2.179814243221	4
22	418	2.521602267975	4
23	12	0	1
23	62	0.84426574409	1
23	74	1.030598088633	1
23	98	1.25291947415	1
23	234	1.906059506348	1
23	316	2.224042679647	1
23	397	2.46104447415	0.85714285714286
23	458	2.593850775387	0.875
24	22	0	1.6243374529295
24	63	0.84426574409	0
24	75	1.030598088633	0
24	99	1.25291947415	0
24	235	1.906059506348	0
24	317	2.224042679647	0
24	398	2.46104447415	0
24	399	2.46104447415	0
24	459	2.593850775387	0
25	22	0	1
25	63	0.84426574409	2
25	75	1.030598088633	3
25	99	1.25291947415	4
25	235	1.906059506348	4
25	317	2.224042679647	4
25	398	2.46104447415	4
25	399	2.46104447415	5
25	459	2.593850775387	6
26	13	0	1
26	68	0.857945619849	1
26	71	0.993163793114	1
26	158	1.610799293964	1
26	184	1.748982243471	1
26	334	2.265914843063	0.83333333333333
26	467	2.627175712024	0.85714285714286
27	23	0	1.0577898430638
27	69	0.857945619849	0
27	72	0.993163793114	0
27	159	1.610799293964	0
27	185	1.748982243471	0
27	335	2.265914843063	0
27	468	2.627175712024	0
28	23	0	1
28	69	0.857945619849	2
28	72	0.993163793114	3
28	159	1.610799293964	4
28	185	1.748982243471	5
28	335	2.265914843063	3
28	468	2.627175712024	3
29	14	0	1
29	65	0.847251737257	1
29	108	1.303402073215	1
29	237	1.911232739919	1
29	301	2.168079342804	0.8
30	24	0	0.95995434280485
30	66	0.847251737257	0
30	109	1.303402073215	0
30	238	1.911232739919	0
30	302	2.168079342804	0
31	24	0	1
31	66	0.847251737257	2
31	109	1.303402073215	3
31	238	1.911232739919	3
31	302	2.168079342804	3
32	15	0	1
32	53	0.623563696397	1
32	59	0.766916981897	1
32	88	1.181578923015	1
32	161	1.618610875679	1
32	258	1.975041981897	0.83333333333333
32	375	2.389703923015	0.71428571428571
32	427	2.568181927081	0.75
33	25	0	1.1360891275108
33	54	0.623563696397	0
33	60	0.766916981897	0
33	89	1.181578923015	0
33	162	1.618610875679	0
33	259	1.975041981897	0
33	376	2.389703923015	0
33	428	2.568181927081	0
34	25	0	1
34	54	0.623563696397	2
34	60	0.766916981897	3
34	89	1.181578923015	4
34	162	1.618610875679	5
34	259	1.975041981897	4
34	376	2.389703923015	3
34	428	2.568181927081	4
35	16	0	1
35	41	0.384381708223	1
35	117	1.363000051118	1
35	133	1.465044857933	1
35	218	1.879413445944	1
35	263	1.993694586325	0.83333333333333
35	298	2.162220405412	0.85714285714286
35	394	2.451626496386	0.875
35	478	2.673169857933	0.77777777777778
36	26	0	0.78556958632544
36	42	0.384381708223	0
36	118	1.363000051118	0
36	134	1.465044857933	0
36	219	1.879413445944	0
36	264	1.993694586325	0
36	299	2.162220405412	0
36	395	2.451626496386	0
36	479	2.673169857933	0
36	480	2.673169857933	0
37	26	0	1
37	42	0.384381708223	2
37	118	1.363000051118	3
37	134	1.465044857933	3
37	219	1.879413445944	3
37	264	1.993694586325	4
37	299	2.162220405412	5
37	395	2.451626496386	5
37	479	2.673169857933	5
37	480	2.673169857933	6
38	17	0	1
38	38	0.297534605255	1
38	44	0.437885382678	1
38	91	1.238796135177	1
38	114	1.338076486717	1
38	166	1.646010382678	0.83333333333333
38	255	1.972350539871	0.85714285714286
38	319	2.237740030976	0.875
38	422	2.546201486717	0.77777777777778
39	27	0	1.8511932664551
39	39	0.297534605255	0
39	45	0.437885382678	0
39	92	1.238796135177	0
39	115	1.338076486717	0
39	167	1.646010382678	0
39	256	1.972350539871	0
39	320	2.237740030976	0
39	423	2.546201486717	0
40	27	0	1
40	39	0.297534605255	2
40	45	0.437885382678	3
40	92	1.238796135177	4
40	115	1.338076486717	4
40	167	1.646010382678	4
40	256	1.972350539871	5
40	320	2.237740030976	6
40	423	2.546201486717	5
41	18	0	1
41	32	0.056712975725	1
41	56	0.704884852282	1
41	130	1.463500472716	1
41	240	1.913009852282	0.8
41	284	2.116608794777	0.83333333333333
42	28	0	1.6721575376578
42	33	0.056712975725	0
42	57	0.704884852282	0
42	131	1.463500472716	0
42	241	1.913009852282	0
42	285	2.116608794777	0
43	28	0	1
43	33	0.056712975725	2
43	57	0.704884852282	3
43	131	1.463500472716	3
43	241	1.913009852282	3
43	285	2.116608794777	4
44	19	0	1
44	35	0.272656294517	1
44	79	1.105276137357	1
44	266	2.007874608737	1
44	346	2.313401137357	0.8
44	448	2.583821103906	0.83333333333333
45	29	0	0.14207211742178
45	36	0.272656294517	0
45	80	1.105276137357	0
45	267	2.007874608737	0
45	347	2.313401137357	0
45	449	2.583821103906	0
46	29	0	1
46	36	0.272656294517	2
46	80	1.105276137357	3
46	267	2.007874608737	2
46	347	2.313401137357	2
46	449	2.583821103906	3
47	20	0	1
47	47	0.477665111655	1
47	101	1.258194287307	1
47	136	1.468576848972	1
47	177	1.713002437026	1
47	221	1.882917323261	0.83333333333333
47	372	2.386662068077	0.85714285714286
47	482	2.676701848972	0.75
48	30	0	0.6747923232615
48	48	0.477665111655	0
48	102	1.258194287307	0
48	137	1.468576848972	0
48	178	1.713002437026	0
48	222	1.882917323261	0
48	373	2.386662068077	0
48	483	2.676701848972	0
49	30	0	1
49	48	0.477665111655	2
49	102	1.258194287307	3
49	137	1.468576848972	4
49	178	1.713002437026	3
49	222	1.882917323261	4
49	373	2.386662068077	4
49	483	2.676701848972	4
