version 2
run General-0-20150601-11:56:34-5916
attr configname General
attr datetime 20150601-11:56:34
attr experiment General
attr inifile omnetpp.ini
attr iterationvars ""
attr iterationvars2 $repetition=0
attr measurement ""
attr network Wsn
attr processid 5916
attr repetition 0
attr replication #0
attr resultdir results
attr runnumber 0
attr seedset 0

vector 26  Wsn.Sensor_0.queue  "rate of channel"  ETV
vector 29  Wsn.Sensor_1.queue  "rate of channel"  ETV
vector 32  Wsn.Sensor_2.queue  "rate of channel"  ETV
vector 35  Wsn.Sensor_3.queue  "rate of channel"  ETV
vector 38  Wsn.Sensor_4.queue  "rate of channel"  ETV
vector 41  Wsn.Sensor_5.queue  "rate of channel"  ETV
vector 44  Wsn.Sensor_6.queue  "rate of channel"  ETV
vector 47  Wsn.Sensor_7.queue  "rate of channel"  ETV
vector 50  Wsn.Sensor_8.queue  "rate of channel"  ETV
vector 53  Wsn.Sensor_9.queue  "rate of channel"  ETV
vector 56  Wsn.Sensor_10.queue  "rate of channel"  ETV
vector 27  Wsn.Sensor_0.control  time  ETV
vector 28  Wsn.Sensor_0.control  "length of the queue"  ETV
vector 30  Wsn.Sensor_1.control  time  ETV
vector 31  Wsn.Sensor_1.control  "length of the queue"  ETV
vector 33  Wsn.Sensor_2.control  time  ETV
vector 34  Wsn.Sensor_2.control  "length of the queue"  ETV
vector 36  Wsn.Sensor_3.control  time  ETV
vector 37  Wsn.Sensor_3.control  "length of the queue"  ETV
vector 39  Wsn.Sensor_4.control  time  ETV
vector 40  Wsn.Sensor_4.control  "length of the queue"  ETV
vector 42  Wsn.Sensor_5.control  time  ETV
vector 43  Wsn.Sensor_5.control  "length of the queue"  ETV
vector 45  Wsn.Sensor_6.control  time  ETV
vector 46  Wsn.Sensor_6.control  "length of the queue"  ETV
vector 48  Wsn.Sensor_7.control  time  ETV
vector 49  Wsn.Sensor_7.control  "length of the queue"  ETV
vector 51  Wsn.Sensor_8.control  time  ETV
vector 52  Wsn.Sensor_8.control  "length of the queue"  ETV
vector 54  Wsn.Sensor_9.control  time  ETV
vector 55  Wsn.Sensor_9.control  "length of the queue"  ETV
vector 57  Wsn.Sensor_10.control  time  ETV
vector 58  Wsn.Sensor_10.control  "length of the queue"  ETV
vector 15  Wsn.Sink.queue  "rate of channel"  ETV
vector 16  Wsn.Sink.control  time  ETV
vector 17  Wsn.Sink.control  "length of the queue"  ETV
vector 19  Wsn.Sink2.queue  "rate of channel"  ETV
vector 20  Wsn.Sink2.control  time  ETV
vector 21  Wsn.Sink2.control  "length of the queue"  ETV
vector 23  Wsn.Gateway.queue  "rate of channel"  ETV
15	45	0.12428089912	1
15	68	0.44145866163	1
15	111	0.752234376557	1
15	146	0.938932232614	1
15	223	1.177629547016	1
15	224	1.177629547016	1
15	262	1.302720204516	1
15	263	1.302720204516	1
15	278	1.340343232089	1
15	279	1.340343232089	1
15	331	1.482855818168	1
15	391	1.631041769104	1
15	443	1.82723221165	1
15	468	1.907802951334	0.92857142857143
15	586	2.324689771335	0.93333333333333
15	634	2.42894412524	0.9375
15	724	2.595031967906	0.94117647058824
15	737	2.640306724522	0.94444444444444
15	931	3.187416840975	0.89473684210526
15	955	3.220328022313	0.9
15	989	3.326262245939	0.9047619047619
15	1039	3.43097950896	0.90909090909091
15	1053	3.452489035723	0.91304347826087
15	1054	3.452489035723	0.91666666666667
15	1069	3.500960097235	0.92
15	1213	3.737666798574	0.92307692307692
15	1214	3.737666798574	0.92592592592593
15	1241	3.782278222084	0.92857142857143
15	1268	3.839505980775	0.93103448275862
15	1288	3.865479797289	0.93333333333333
15	1351	4.016226770754	0.93548387096774
15	1411	4.148670320331	0.9375
15	1417	4.15769283013	0.93939393939394
15	1453	4.239788948144	0.94117647058824
15	1454	4.239788948144	0.94285714285714
15	1485	4.285368943984	0.91666666666667
15	1520	4.356050321651	0.91891891891892
15	1538	4.382694696474	0.92105263157895
15	1554	4.410457579937	0.92307692307692
15	1555	4.410457579937	0.925
15	1653	4.638877945073	0.92682926829268
15	1686	4.723489920426	0.92857142857143
15	1768	4.864691191982	0.90697674418605
15	1784	4.884523890032	0.90909090909091
15	1792	4.920050466596	0.91111111111111
15	1813	4.957256013923	0.91304347826087
15	1872	5.05863707773	0.8936170212766
15	1916	5.137417727546	0.89583333333333
15	1937	5.162096897657	0.89795918367347
15	1938	5.162096897657	0.9
15	2004	5.2364594626	0.90196078431373
15	2023	5.274784315773	0.90384615384615
15	2092	5.440669086924	0.90566037735849
15	2121	5.546014583487	0.90740740740741
15	2163	5.6116405159	0.90909090909091
15	2181	5.65862040075	0.91071428571429
15	2185	5.663800355089	0.89473684210526
15	2215	5.699691466106	0.89655172413793
15	2216	5.699691466106	0.89830508474576
15	2307	5.852835854566	0.9
15	2432	6.009770370371	0.9016393442623
15	2449	6.032726468215	0.90322580645161
15	2453	6.039105796417	0.9047619047619
15	2457	6.043251889342	0.90625
15	2463	6.049682697331	0.90769230769231
15	2473	6.053794860071	0.90909090909091
15	2620	6.355332335153	0.91044776119403
15	2636	6.387476745102	0.89705882352941
15	2657	6.439723999057	0.89855072463768
15	2658	6.439723999057	0.9
15	2797	6.667460102043	0.88732394366197
15	2805	6.669418783441	0.88888888888889
15	2845	6.768768360069	0.89041095890411
15	2989	6.982887573357	0.89189189189189
15	3018	7.027205073902	0.89333333333333
15	3043	7.066664729783	0.89473684210526
15	3063	7.113628622642	0.88311688311688
15	3104	7.189229792611	0.88461538461538
15	3108	7.189978455122	0.88607594936709
15	3144	7.268244944795	0.8875
15	3145	7.268244944795	0.88888888888889
15	3159	7.289960772777	0.89024390243902
15	3191	7.363496008145	0.89156626506024
15	3238	7.434768132681	0.89285714285714
15	3252	7.464312362534	0.89411764705882
15	3253	7.464312362534	0.8953488372093
15	3303	7.534904867106	0.89655172413793
15	3333	7.570196979142	0.89772727272727
15	3349	7.618296298014	0.89887640449438
15	3424	7.74748333839	0.9
15	3441	7.782914473137	0.9010989010989
15	3497	7.88462631781	0.89130434782609
15	3514	7.936310079927	0.89247311827957
15	3528	7.946990846118	0.8936170212766
15	3532	7.949559995599	0.89473684210526
15	3582	8.042058203417	0.89583333333333
15	3652	8.154847725918	0.88659793814433
15	3727	8.28744612825	0.88775510204082
15	3728	8.28744612825	0.88888888888889
15	3748	8.310833542647	0.88
15	3764	8.324574122486	0.88118811881188
15	3772	8.337859921203	0.88235294117647
15	3782	8.352388070479	0.88349514563107
15	3809	8.372951203885	0.88461538461538
15	3855	8.42759129177	0.88571428571429
15	3856	8.42759129177	0.88679245283019
15	3876	8.464493794647	0.88785046728972
15	3889	8.489619773628	0.88888888888889
15	3897	8.505753172722	0.88990825688073
15	3947	8.596676709873	0.89090909090909
15	3973	8.6346438226	0.89189189189189
15	3995	8.689593941596	0.89285714285714
15	4085	8.857881905325	0.89380530973451
15	4091	8.877894882505	0.89473684210526
15	4138	8.937254337521	0.88695652173913
15	4148	8.948665376909	0.88793103448276
15	4160	8.974618222845	0.88888888888889
15	4171	8.989528960705	0.88983050847458
15	4200	9.01850999198	0.89075630252101
15	4211	9.031039383885	0.89166666666667
15	4253	9.117828555562	0.88429752066116
15	4326	9.273742722504	0.88524590163934
15	4338	9.309553637561	0.88617886178862
15	4346	9.339806090033	0.88709677419355
15	4367	9.37775727529	0.888
15	4368	9.37775727529	0.88888888888889
15	4451	9.511941217166	0.88976377952756
15	4455	9.513162837876	0.890625
15	4490	9.567221330172	0.89147286821705
15	4545	9.63111676338	0.89230769230769
15	4560	9.649180063085	0.88549618320611
15	4672	9.797102635296	0.87878787878788
15	4709	9.852453930347	0.8796992481203
15	4747	9.911179080995	0.88059701492537
15	4813	10.027203746064	0.88148148148148
15	4819	10.034251452581	0.88235294117647
15	4840	10.072292726644	0.88321167883212
15	4851	10.082797023159	0.88405797101449
15	4930	10.241862470564	0.88489208633094
15	4931	10.241862470564	0.88571428571429
15	4966	10.281662025291	0.87943262411348
15	5012	10.349022592343	0.87323943661972
15	5021	10.356755030731	0.87412587412587
15	5056	10.419869174761	0.875
15	5075	10.451827744645	0.87586206896552
15	5081	10.460051164888	0.87671232876712
15	5089	10.468794523784	0.87755102040816
15	5160	10.583318400819	0.87837837837838
15	5207	10.658812389987	0.87919463087248
15	5288	10.812616562617	0.87333333333333
15	5329	10.897213268137	0.87417218543046
15	5330	10.897213268137	0.875
15	5336	10.898440040226	0.87581699346405
15	5337	10.898440040226	0.87662337662338
15	5448	11.074809922416	0.87741935483871
15	5512	11.173973437909	0.87820512820513
15	5586	11.283969117953	0.87261146496815
15	5641	11.37025923158	0.87341772151899
15	5718	11.503256885722	0.87421383647799
15	5757	11.604953143202	0.875
15	5763	11.626016061442	0.87577639751553
15	5849	11.810286328584	0.87037037037037
15	5865	11.827688097765	0.87116564417178
15	5866	11.827688097765	0.8719512195122
15	5938	11.932398319269	0.86666666666667
15	6067	12.171361529424	0.86746987951807
15	6094	12.243015735686	0.86826347305389
15	6114	12.314984837004	0.86904761904762
15	6218	12.568575245838	0.8698224852071
15	6219	12.568575245838	0.87058823529412
15	6232	12.630571804284	0.87134502923977
15	6294	12.756078955174	0.87209302325581
15	6398	12.937777246717	0.86705202312139
15	6416	12.95214182911	0.86781609195402
15	6417	12.95214182911	0.86857142857143
15	6458	13.043911034751	0.86931818181818
15	6534	13.179912045406	0.87005649717514
15	6545	13.191781420534	0.87078651685393
15	6557	13.21563181611	0.87150837988827
15	6589	13.282733148938	0.87222222222222
15	6593	13.288780962505	0.87292817679558
15	6678	13.491535707996	0.87362637362637
15	6753	13.630260529616	0.87431693989071
15	6793	13.7344018836	0.875
15	6809	13.765955827446	0.87027027027027
15	6899	13.907384898554	0.87096774193548
15	6908	13.915764159099	0.8716577540107
15	6909	13.915764159099	0.87234042553191
15	6924	13.939469616176	0.86772486772487
15	7042	14.163111462876	0.86842105263158
15	7050	14.179109208793	0.86910994764398
15	7115	14.293824145723	0.86979166666667
15	7133	14.398184866332	0.87046632124352
15	7234	14.587782953759	0.8659793814433
15	7275	14.640012862081	0.86666666666667
15	7323	14.719651579432	0.86734693877551
15	7331	14.729818802918	0.86294416243655
15	7335	14.732028179842	0.86363636363636
15	7371	14.825729642216	0.8643216080402
15	7384	14.83952260301	0.865
15	7385	14.83952260301	0.86567164179104
15	7568	15.164603772611	0.86633663366337
15	7576	15.188087120806	0.86699507389163
15	7591	15.200389949991	0.86764705882353
15	7656	15.320580489033	0.86341463414634
15	7706	15.39503254722	0.86407766990291
15	7707	15.39503254722	0.86473429951691
15	7782	15.562414711029	0.86538461538462
15	7812	15.617443966251	0.86602870813397
15	7845	15.690112890825	0.86666666666667
15	7853	15.708252243382	0.86729857819905
15	7857	15.714260662711	0.86792452830189
15	8011	16.129982664858	0.86384976525822
15	8044	16.19127539852	0.86448598130841
15	8058	16.201003009494	0.86511627906977
15	8100	16.288834289451	0.86574074074074
15	8101	16.288834289451	0.86635944700461
15	8124	16.336434351089	0.86697247706422
15	8224	16.528533534183	0.8675799086758
15	8240	16.559384114846	0.86818181818182
15	8241	16.559384114846	0.86877828054299
15	8351	16.82490237899	0.86936936936937
15	8410	16.941662845941	0.86995515695067
15	8490	17.089405645172	0.86607142857143
15	8525	17.149475207704	0.86222222222222
15	8534	17.18145783074	0.86283185840708
15	8572	17.273380339526	0.86343612334802
15	8613	17.324272512839	0.8640350877193
15	8624	17.358651531777	0.8646288209607
15	8789	17.715458754722	0.86521739130435
15	8890	17.885905637442	0.86580086580087
15	8960	17.982736592216	0.86637931034483
15	8964	17.991128261937	0.86695278969957
15	9037	18.13262162989	0.86324786324786
15	9109	18.262687820278	0.86382978723404
15	9120	18.27660350924	0.86440677966102
15	9124	18.284480712402	0.86075949367089
15	9167	18.38007470364	0.86134453781513
15	9168	18.38007470364	0.86192468619247
15	9190	18.409793119915	0.8625
15	9246	18.51775900441	0.86307053941909
15	9367	18.74714403324	0.86363636363636
15	9395	18.811698593005	0.8641975308642
15	9581	19.117928254922	0.86475409836066
15	9706	19.320071170711	0.86122448979592
15	9757	19.388544346939	0.86178861788618
15	9758	19.388544346939	0.86234817813765
15	9771	19.412466170184	0.86290322580645
15	9777	19.418347884121	0.86345381526104
15	9791	19.438444341682	0.86
15	9830	19.496745039047	0.8605577689243
15	9831	19.496745039047	0.86111111111111
15	9858	19.542241327033	0.86166007905138
15	9866	19.554851374973	0.86220472440945
15	9976	19.744708029001	0.86274509803922
15	9983	19.765553811366	0.86328125
15	10049	19.913795292178	0.86381322957198
15	10085	19.975286165522	0.86434108527132
15	10123	20.055202577299	0.86486486486486
15	10153	20.087625354907	0.86538461538462
15	10249	20.209551822663	0.86590038314176
15	10257	20.236962448255	0.86641221374046
15	10302	20.308566170529	0.86311787072243
15	10337	20.362508860918	0.86363636363636
15	10392	20.482191986085	0.86415094339623
15	10427	20.557504024039	0.86466165413534
15	10540	20.764008800068	0.86516853932584
15	10541	20.764008800068	0.86567164179104
15	10587	20.847481699697	0.86617100371747
15	10588	20.847481699697	0.86666666666667
15	10594	20.855205665005	0.86346863468635
15	10630	20.870312605552	0.86397058823529
15	10707	21.0169484725	0.86080586080586
15	10772	21.143068608275	0.86131386861314
15	10840	21.267441116419	0.86181818181818
15	10868	21.32084186576	0.86231884057971
15	10880	21.338816475156	0.86281588447653
15	10990	21.504854375875	0.86330935251799
15	11024	21.556986279818	0.86379928315412
15	11025	21.556986279818	0.86428571428571
15	11104	21.676522277798	0.86476868327402
15	11108	21.676798449044	0.86524822695035
15	11133	21.755885290687	0.86219081272085
15	11145	21.781345696567	0.86267605633803
15	11174	21.837810404279	0.86315789473684
16	46	0.12428089912	0.001
16	69	0.44145866163	0.001
16	112	0.752234376557	0.001
16	147	0.938932232614	0.001
16	225	1.177629547016	0.001
16	264	1.302720204516	0.001
16	280	1.340343232089	0.001
16	332	1.482855818168	0.001
16	392	1.631041769104	0.001
16	444	1.82723221165	0.001
16	469	1.907802951334	0.001
16	470	1.907802951334	0.001
16	471	1.907802951334	0.001
16	472	1.907802951334	0.001
16	473	1.907802951334	0.001
16	587	2.324689771335	0.001
16	635	2.42894412524	0.001
16	725	2.595031967906	0.001
16	738	2.640306724522	0.001
16	932	3.187416840975	0.001
16	933	3.187416840975	0.001
16	934	3.187416840975	0.001
16	935	3.187416840975	0.001
16	936	3.187416840975	0.001
16	937	3.187416840975	0.001
16	938	3.187416840975	0.001
16	956	3.220328022313	0.001
16	990	3.326262245939	0.001
16	1040	3.43097950896	0.001
16	1055	3.452489035723	0.001
16	1070	3.500960097235	0.001
16	1215	3.737666798574	0.001
16	1242	3.782278222084	0.001
16	1269	3.839505980775	0.001
16	1289	3.865479797289	0.001
16	1352	4.016226770754	0.001
16	1412	4.148670320331	0.001
16	1418	4.15769283013	0.001
16	1455	4.239788948144	0.001
16	1486	4.285368943984	0.001
16	1521	4.356050321651	0.001
16	1539	4.382694696474	0.001
16	1556	4.410457579937	0.001
16	1654	4.638877945073	0.001
16	1687	4.723489920426	0.001
16	1769	4.864691191982	0.001
16	1770	4.864691191982	0.001
16	1771	4.864691191982	0.001
16	1772	4.864691191982	0.001
16	1773	4.864691191982	0.001
16	1785	4.884523890032	0.001
16	1793	4.920050466596	0.001
16	1814	4.957256013923	0.001
16	1873	5.05863707773	0.001
16	1874	5.05863707773	0.001
16	1875	5.05863707773	0.001
16	1876	5.05863707773	0.001
16	1917	5.137417727546	0.001
16	1939	5.162096897657	0.001
16	2005	5.2364594626	0.001
16	2024	5.274784315773	0.001
16	2093	5.440669086924	0.001
16	2122	5.546014583487	0.001
16	2164	5.6116405159	0.001
16	2182	5.65862040075	0.001
16	2186	5.663800355089	0.001
16	2187	5.663800355089	0.001
16	2188	5.663800355089	0.001
16	2189	5.663800355089	0.001
16	2190	5.663800355089	0.001
16	2191	5.663800355089	0.001
16	2192	5.663800355089	0.001
16	2193	5.663800355089	0.001
16	2194	5.663800355089	0.001
16	2195	5.663800355089	0.001
16	2217	5.699691466106	0.001
16	2308	5.852835854566	0.001
16	2433	6.009770370371	0.001
16	2450	6.032726468215	0.001
16	2454	6.039105796417	0.001
16	2458	6.043251889342	0.001
16	2464	6.049682697331	0.001
16	2474	6.053794860071	0.001
16	2621	6.355332335153	0.001
16	2637	6.387476745102	0.001
16	2638	6.387476745102	0.001
16	2659	6.439723999057	0.001
16	2798	6.667460102043	0.001
16	2799	6.667460102043	0.001
16	2800	6.667460102043	0.001
16	2801	6.667460102043	0.001
16	2802	6.667460102043	0.001
16	2806	6.669418783441	0.001
16	2846	6.768768360069	0.001
16	2990	6.982887573357	0.001
16	3019	7.027205073902	0.001
16	3044	7.066664729783	0.001
16	3064	7.113628622642	0.001
16	3065	7.113628622642	0.001
16	3066	7.113628622642	0.001
16	3067	7.113628622642	0.001
16	3068	7.113628622642	0.001
16	3069	7.113628622642	0.001
16	3070	7.113628622642	0.001
16	3071	7.113628622642	0.001
16	3072	7.113628622642	0.001
16	3105	7.189229792611	0.001
16	3109	7.189978455122	0.001
16	3146	7.268244944795	0.001
16	3160	7.289960772777	0.001
16	3192	7.363496008145	0.001
16	3239	7.434768132681	0.001
16	3254	7.464312362534	0.001
16	3304	7.534904867106	0.001
16	3334	7.570196979142	0.001
16	3350	7.618296298014	0.001
16	3425	7.74748333839	0.001
16	3442	7.782914473137	0.001
16	3498	7.88462631781	0.001
16	3499	7.88462631781	0.001
16	3515	7.936310079927	0.001
16	3529	7.946990846118	0.001
16	3533	7.949559995599	0.001
16	3583	8.042058203417	0.001
16	3653	8.154847725918	0.001
16	3654	8.154847725918	0.001
16	3655	8.154847725918	0.001
16	3729	8.28744612825	0.001
16	3749	8.310833542647	0.001
16	3750	8.310833542647	0.001
16	3765	8.324574122486	0.001
16	3773	8.337859921203	0.001
16	3783	8.352388070479	0.001
16	3810	8.372951203885	0.001
16	3857	8.42759129177	0.001
16	3877	8.464493794647	0.001
16	3890	8.489619773628	0.001
16	3898	8.505753172722	0.001
16	3948	8.596676709873	0.001
16	3974	8.6346438226	0.001
16	3996	8.689593941596	0.001
16	4086	8.857881905325	0.001
16	4092	8.877894882505	0.001
16	4139	8.937254337521	0.001
16	4140	8.937254337521	0.001
16	4141	8.937254337521	0.001
16	4142	8.937254337521	0.001
16	4143	8.937254337521	0.001
16	4149	8.948665376909	0.001
16	4161	8.974618222845	0.001
16	4172	8.989528960705	0.001
16	4201	9.01850999198	0.001
16	4212	9.031039383885	0.001
16	4254	9.117828555562	0.001
16	4327	9.273742722504	0.001
16	4339	9.309553637561	0.001
16	4347	9.339806090033	0.001
16	4369	9.37775727529	0.001
16	4452	9.511941217166	0.001
16	4456	9.513162837876	0.001
16	4491	9.567221330172	0.001
16	4546	9.63111676338	0.001
16	4561	9.649180063085	0.001
16	4673	9.797102635296	0.001
16	4674	9.797102635296	0.001
16	4710	9.852453930347	0.001
16	4748	9.911179080995	0.001
16	4814	10.027203746064	0.001
16	4820	10.034251452581	0.001
16	4841	10.072292726644	0.001
16	4852	10.082797023159	0.001
16	4932	10.241862470564	0.001
16	4967	10.281662025291	0.001
16	4968	10.281662025291	0.001
16	4969	10.281662025291	0.001
16	5013	10.349022592343	0.001
16	5014	10.349022592343	0.001
16	5022	10.356755030731	0.001
16	5057	10.419869174761	0.001
16	5076	10.451827744645	0.001
16	5082	10.460051164888	0.001
16	5090	10.468794523784	0.001
16	5161	10.583318400819	0.001
16	5208	10.658812389987	0.001
16	5289	10.812616562617	0.001
16	5290	10.812616562617	0.001
16	5291	10.812616562617	0.001
16	5292	10.812616562617	0.001
16	5293	10.812616562617	0.001
16	5294	10.812616562617	0.001
16	5295	10.812616562617	0.001
16	5331	10.897213268137	0.001
16	5338	10.898440040226	0.001
16	5449	11.074809922416	0.001
16	5513	11.173973437909	0.001
16	5587	11.283969117953	0.001
16	5588	11.283969117953	0.001
16	5589	11.283969117953	0.001
16	5590	11.283969117953	0.001
16	5642	11.37025923158	0.001
16	5719	11.503256885722	0.001
16	5758	11.604953143202	0.001
16	5764	11.626016061442	0.001
16	5850	11.810286328584	0.001
16	5851	11.810286328584	0.001
16	5852	11.810286328584	0.001
16	5853	11.810286328584	0.001
16	5854	11.810286328584	0.001
16	5867	11.827688097765	0.001
16	5939	11.932398319269	0.001
16	5940	11.932398319269	0.001
16	6068	12.171361529424	0.001
16	6095	12.243015735686	0.001
16	6115	12.314984837004	0.001
16	6220	12.568575245838	0.001
16	6233	12.630571804284	0.001
16	6295	12.756078955174	0.001
16	6399	12.937777246717	0.001
16	6400	12.937777246717	0.001
16	6401	12.937777246717	0.001
16	6402	12.937777246717	0.001
16	6403	12.937777246717	0.001
16	6404	12.937777246717	0.001
16	6405	12.937777246717	0.001
16	6406	12.937777246717	0.001
16	6407	12.937777246717	0.001
16	6408	12.937777246717	0.001
16	6418	12.95214182911	0.001
16	6459	13.043911034751	0.001
16	6535	13.179912045406	0.001
16	6546	13.191781420534	0.001
16	6558	13.21563181611	0.001
16	6590	13.282733148938	0.001
16	6594	13.288780962505	0.001
16	6679	13.491535707996	0.001
16	6754	13.630260529616	0.001
16	6794	13.7344018836	0.001
16	6810	13.765955827446	0.001
16	6811	13.765955827446	0.001
16	6812	13.765955827446	0.001
16	6900	13.907384898554	0.001
16	6910	13.915764159099	0.001
16	6925	13.939469616176	0.001
16	6926	13.939469616176	0.001
16	7043	14.163111462876	0.001
16	7051	14.179109208793	0.001
16	7116	14.293824145723	0.001
16	7134	14.398184866332	0.001
16	7235	14.587782953759	0.001
16	7236	14.587782953759	0.001
16	7237	14.587782953759	0.001
16	7276	14.640012862081	0.001
16	7324	14.719651579432	0.001
16	7332	14.729818802918	0.001
16	7336	14.732028179842	0.001
16	7372	14.825729642216	0.001
16	7386	14.83952260301	0.001
16	7569	15.164603772611	0.001
16	7577	15.188087120806	0.001
16	7592	15.200389949991	0.001
16	7657	15.320580489033	0.001
16	7658	15.320580489033	0.001
16	7659	15.320580489033	0.001
16	7660	15.320580489033	0.001
16	7661	15.320580489033	0.001
16	7662	15.320580489033	0.001
16	7663	15.320580489033	0.001
16	7664	15.320580489033	0.001
16	7665	15.320580489033	0.001
16	7666	15.320580489033	0.001
16	7708	15.39503254722	0.001
16	7783	15.562414711029	0.001
16	7813	15.617443966251	0.001
16	7846	15.690112890825	0.001
16	7854	15.708252243382	0.001
16	7858	15.714260662711	0.001
16	8012	16.129982664858	0.001
16	8013	16.129982664858	0.001
16	8014	16.129982664858	0.001
16	8015	16.129982664858	0.001
16	8016	16.129982664858	0.001
16	8017	16.129982664858	0.001
16	8018	16.129982664858	0.001
16	8019	16.129982664858	0.001
16	8020	16.129982664858	0.001
16	8021	16.129982664858	0.001
16	8022	16.129982664858	0.001
16	8023	16.129982664858	0.001
16	8045	16.19127539852	0.001
16	8059	16.201003009494	0.001
16	8102	16.288834289451	0.001
16	8125	16.336434351089	0.001
16	8225	16.528533534183	0.001
16	8242	16.559384114846	0.001
16	8352	16.82490237899	0.001
16	8411	16.941662845941	0.001
16	8491	17.089405645172	0.001
16	8492	17.089405645172	0.001
16	8493	17.089405645172	0.001
16	8494	17.089405645172	0.001
16	8495	17.089405645172	0.001
16	8496	17.089405645172	0.001
16	8497	17.089405645172	0.001
16	8498	17.089405645172	0.001
16	8499	17.089405645172	0.001
16	8526	17.149475207704	0.001
16	8527	17.149475207704	0.001
16	8535	17.18145783074	0.001
16	8573	17.273380339526	0.001
16	8614	17.324272512839	0.001
16	8625	17.358651531777	0.001
16	8790	17.715458754722	0.001
16	8891	17.885905637442	0.001
16	8961	17.982736592216	0.001
16	8965	17.991128261937	0.001
16	9038	18.13262162989	0.001
16	9039	18.13262162989	0.001
16	9040	18.13262162989	0.001
16	9041	18.13262162989	0.001
16	9042	18.13262162989	0.001
16	9043	18.13262162989	0.001
16	9044	18.13262162989	0.001
16	9045	18.13262162989	0.001
16	9046	18.13262162989	0.001
16	9047	18.13262162989	0.001
16	9048	18.13262162989	0.001
16	9049	18.13262162989	0.001
16	9050	18.13262162989	0.001
16	9110	18.262687820278	0.001
16	9121	18.27660350924	0.001
16	9125	18.284480712402	0.001
16	9126	18.284480712402	0.001
16	9127	18.284480712402	0.001
16	9169	18.38007470364	0.001
16	9191	18.409793119915	0.001
16	9247	18.51775900441	0.001
16	9368	18.74714403324	0.001
16	9396	18.811698593005	0.001
16	9582	19.117928254922	0.001
16	9707	19.320071170711	0.001
16	9708	19.320071170711	0.001
16	9709	19.320071170711	0.001
16	9710	19.320071170711	0.001
16	9759	19.388544346939	0.001
16	9772	19.412466170184	0.001
16	9778	19.418347884121	0.001
16	9792	19.438444341682	0.001
16	9793	19.438444341682	0.001
16	9794	19.438444341682	0.001
16	9832	19.496745039047	0.001
16	9859	19.542241327033	0.001
16	9867	19.554851374973	0.001
16	9977	19.744708029001	0.001
16	9984	19.765553811366	0.001
16	10050	19.913795292178	0.001
16	10086	19.975286165522	0.001
16	10124	20.055202577299	0.001
16	10154	20.087625354907	0.001
16	10250	20.209551822663	0.001
16	10258	20.236962448255	0.001
16	10303	20.308566170529	0.001
16	10304	20.308566170529	0.001
16	10305	20.308566170529	0.001
16	10306	20.308566170529	0.001
16	10307	20.308566170529	0.001
16	10338	20.362508860918	0.001
16	10393	20.482191986085	0.001
16	10428	20.557504024039	0.001
16	10542	20.764008800068	0.001
16	10589	20.847481699697	0.001
16	10595	20.855205665005	0.001
16	10596	20.855205665005	0.001
16	10597	20.855205665005	0.001
16	10598	20.855205665005	0.001
16	10599	20.855205665005	0.001
16	10600	20.855205665005	0.001
16	10601	20.855205665005	0.001
16	10602	20.855205665005	0.001
16	10603	20.855205665005	0.001
16	10631	20.870312605552	0.001
16	10708	21.0169484725	0.001
16	10709	21.0169484725	0.001
16	10710	21.0169484725	0.001
16	10773	21.143068608275	0.001
16	10841	21.267441116419	0.001
16	10869	21.32084186576	0.001
16	10881	21.338816475156	0.001
16	10991	21.504854375875	0.001
16	11026	21.556986279818	0.001
16	11105	21.676522277798	0.001
16	11109	21.676798449044	0.001
16	11134	21.755885290687	0.001
16	11146	21.781345696567	0.001
16	11175	21.837810404279	0.001
17	46	0.12428089912	1
17	69	0.44145866163	1
17	112	0.752234376557	1
17	147	0.938932232614	1
17	225	1.177629547016	1
17	264	1.302720204516	1
17	280	1.340343232089	1
17	332	1.482855818168	1
17	392	1.631041769104	1
17	444	1.82723221165	1
17	469	1.907802951334	1
17	470	1.907802951334	1
17	471	1.907802951334	1
17	472	1.907802951334	1
17	473	1.907802951334	1
17	587	2.324689771335	1
17	635	2.42894412524	1
17	725	2.595031967906	1
17	738	2.640306724522	1
17	932	3.187416840975	1
17	933	3.187416840975	1
17	934	3.187416840975	1
17	935	3.187416840975	1
17	936	3.187416840975	1
17	937	3.187416840975	1
17	938	3.187416840975	1
17	956	3.220328022313	1
17	990	3.326262245939	1
17	1040	3.43097950896	1
17	1055	3.452489035723	1
17	1070	3.500960097235	1
17	1215	3.737666798574	1
17	1242	3.782278222084	1
17	1269	3.839505980775	1
17	1289	3.865479797289	1
17	1352	4.016226770754	1
17	1412	4.148670320331	1
17	1418	4.15769283013	1
17	1455	4.239788948144	1
17	1486	4.285368943984	1
17	1521	4.356050321651	1
17	1539	4.382694696474	1
17	1556	4.410457579937	1
17	1654	4.638877945073	1
17	1687	4.723489920426	1
17	1769	4.864691191982	1
17	1770	4.864691191982	1
17	1771	4.864691191982	1
17	1772	4.864691191982	1
17	1773	4.864691191982	1
17	1785	4.884523890032	1
17	1793	4.920050466596	1
17	1814	4.957256013923	1
17	1873	5.05863707773	1
17	1874	5.05863707773	1
17	1875	5.05863707773	1
17	1876	5.05863707773	1
17	1917	5.137417727546	1
17	1939	5.162096897657	1
17	2005	5.2364594626	1
17	2024	5.274784315773	1
17	2093	5.440669086924	1
17	2122	5.546014583487	1
17	2164	5.6116405159	1
17	2182	5.65862040075	1
17	2186	5.663800355089	1
17	2187	5.663800355089	1
17	2188	5.663800355089	1
17	2189	5.663800355089	1
17	2190	5.663800355089	1
17	2191	5.663800355089	1
17	2192	5.663800355089	1
17	2193	5.663800355089	1
17	2194	5.663800355089	1
17	2195	5.663800355089	1
17	2217	5.699691466106	1
17	2308	5.852835854566	1
17	2433	6.009770370371	1
17	2450	6.032726468215	1
17	2454	6.039105796417	1
17	2458	6.043251889342	1
17	2464	6.049682697331	1
17	2474	6.053794860071	1
17	2621	6.355332335153	1
17	2637	6.387476745102	1
17	2638	6.387476745102	1
17	2659	6.439723999057	1
17	2798	6.667460102043	1
17	2799	6.667460102043	1
17	2800	6.667460102043	1
17	2801	6.667460102043	1
17	2802	6.667460102043	1
17	2806	6.669418783441	1
17	2846	6.768768360069	1
17	2990	6.982887573357	1
17	3019	7.027205073902	1
17	3044	7.066664729783	1
17	3064	7.113628622642	1
17	3065	7.113628622642	1
17	3066	7.113628622642	1
17	3067	7.113628622642	1
17	3068	7.113628622642	1
17	3069	7.113628622642	1
17	3070	7.113628622642	1
17	3071	7.113628622642	1
17	3072	7.113628622642	1
17	3105	7.189229792611	1
17	3109	7.189978455122	1
17	3146	7.268244944795	1
17	3160	7.289960772777	1
17	3192	7.363496008145	1
17	3239	7.434768132681	1
17	3254	7.464312362534	1
17	3304	7.534904867106	1
17	3334	7.570196979142	1
17	3350	7.618296298014	1
17	3425	7.74748333839	1
17	3442	7.782914473137	1
17	3498	7.88462631781	1
17	3499	7.88462631781	1
17	3515	7.936310079927	1
17	3529	7.946990846118	1
17	3533	7.949559995599	1
17	3583	8.042058203417	1
17	3653	8.154847725918	1
17	3654	8.154847725918	1
17	3655	8.154847725918	1
17	3729	8.28744612825	1
17	3749	8.310833542647	1
17	3750	8.310833542647	1
17	3765	8.324574122486	1
17	3773	8.337859921203	1
17	3783	8.352388070479	1
17	3810	8.372951203885	1
17	3857	8.42759129177	1
17	3877	8.464493794647	1
17	3890	8.489619773628	1
17	3898	8.505753172722	1
17	3948	8.596676709873	1
17	3974	8.6346438226	1
17	3996	8.689593941596	1
17	4086	8.857881905325	1
17	4092	8.877894882505	1
17	4139	8.937254337521	1
17	4140	8.937254337521	1
17	4141	8.937254337521	1
17	4142	8.937254337521	1
17	4143	8.937254337521	1
17	4149	8.948665376909	1
17	4161	8.974618222845	1
17	4172	8.989528960705	1
17	4201	9.01850999198	1
17	4212	9.031039383885	1
17	4254	9.117828555562	1
17	4327	9.273742722504	1
17	4339	9.309553637561	1
17	4347	9.339806090033	1
17	4369	9.37775727529	1
17	4452	9.511941217166	1
17	4456	9.513162837876	1
17	4491	9.567221330172	1
17	4546	9.63111676338	1
17	4561	9.649180063085	1
17	4673	9.797102635296	1
17	4674	9.797102635296	1
17	4710	9.852453930347	1
17	4748	9.911179080995	1
17	4814	10.027203746064	1
17	4820	10.034251452581	1
17	4841	10.072292726644	1
17	4852	10.082797023159	1
17	4932	10.241862470564	1
17	4967	10.281662025291	1
17	4968	10.281662025291	1
17	4969	10.281662025291	1
17	5013	10.349022592343	1
17	5014	10.349022592343	1
17	5022	10.356755030731	1
17	5057	10.419869174761	1
17	5076	10.451827744645	1
17	5082	10.460051164888	1
17	5090	10.468794523784	1
17	5161	10.583318400819	1
17	5208	10.658812389987	1
17	5289	10.812616562617	1
17	5290	10.812616562617	1
17	5291	10.812616562617	1
17	5292	10.812616562617	1
17	5293	10.812616562617	1
17	5294	10.812616562617	1
17	5295	10.812616562617	1
17	5331	10.897213268137	1
17	5338	10.898440040226	1
17	5449	11.074809922416	1
17	5513	11.173973437909	1
17	5587	11.283969117953	1
17	5588	11.283969117953	1