version 2
run General-0-20150601-05:02:53-11034
attr configname General
attr datetime 20150601-05:02:53
attr experiment General
attr inifile omnetpp.ini
attr iterationvars ""
attr iterationvars2 $repetition=0
attr measurement ""
attr network Wsn
attr processid 11034
attr repetition 0
attr replication #0
attr resultdir results
attr runnumber 0
attr seedset 0

vector 29  Wsn.Sensor_0.queue  "rate of channel"  ETV
vector 33  Wsn.Sensor_1.queue  "rate of channel"  ETV
vector 37  Wsn.Sensor_2.queue  "rate of channel"  ETV
vector 41  Wsn.Sensor_3.queue  "rate of channel"  ETV
vector 45  Wsn.Sensor_4.queue  "rate of channel"  ETV
vector 49  Wsn.Sensor_5.queue  "rate of channel"  ETV
vector 53  Wsn.Sensor_6.queue  "rate of channel"  ETV
vector 57  Wsn.Sensor_7.queue  "rate of channel"  ETV
vector 61  Wsn.Sensor_8.queue  "rate of channel"  ETV
vector 65  Wsn.Sensor_9.queue  "rate of channel"  ETV
vector 69  Wsn.Sensor_10.queue  "rate of channel"  ETV
vector 30  Wsn.Sensor_0.control  time  ETV
vector 31  Wsn.Sensor_0.control  "length of the queue"  ETV
vector 34  Wsn.Sensor_1.control  time  ETV
vector 35  Wsn.Sensor_1.control  "length of the queue"  ETV
vector 38  Wsn.Sensor_2.control  time  ETV
vector 39  Wsn.Sensor_2.control  "length of the queue"  ETV
vector 42  Wsn.Sensor_3.control  time  ETV
vector 43  Wsn.Sensor_3.control  "length of the queue"  ETV
vector 46  Wsn.Sensor_4.control  time  ETV
vector 47  Wsn.Sensor_4.control  "length of the queue"  ETV
vector 50  Wsn.Sensor_5.control  time  ETV
vector 51  Wsn.Sensor_5.control  "length of the queue"  ETV
vector 54  Wsn.Sensor_6.control  time  ETV
vector 55  Wsn.Sensor_6.control  "length of the queue"  ETV
vector 58  Wsn.Sensor_7.control  time  ETV
vector 59  Wsn.Sensor_7.control  "length of the queue"  ETV
vector 62  Wsn.Sensor_8.control  time  ETV
vector 63  Wsn.Sensor_8.control  "length of the queue"  ETV
vector 66  Wsn.Sensor_9.control  time  ETV
vector 67  Wsn.Sensor_9.control  "length of the queue"  ETV
vector 70  Wsn.Sensor_10.control  time  ETV
vector 71  Wsn.Sensor_10.control  "length of the queue"  ETV
vector 15  Wsn.Sink.queue  "rate of channel"  ETV
vector 16  Wsn.Sink.control  time  ETV
vector 17  Wsn.Sink.control  "length of the queue"  ETV
vector 20  Wsn.Sink2.queue  "rate of channel"  ETV
vector 21  Wsn.Sink2.control  time  ETV
vector 22  Wsn.Sink2.control  "length of the queue"  ETV
vector 19  Wsn.Sink2.ret  num  ETV
vector 14  Wsn.Sink.ret  num  ETV
vector 24  Wsn.Gateway.ret  num  ETV
vector 25  Wsn.Gateway.queue  "rate of channel"  ETV
14	140	0.561364993391	1
14	263	0.887775472886	1
14	283	0.971418796045	1
14	356	1.207329858726	2
14	526	1.591201453406	2
14	609	1.773109525962	1
14	616	1.781837585659	1
14	731	2.008069772788	2
14	796	2.129413222592	2
14	885	2.30366078129	2
14	1039	2.674724796606	1
14	1155	2.984443971941	1
14	1223	3.100754594716	2
14	1282	3.255058378965	1
14	1403	3.505175863909	2
14	1470	3.625894844465	1
14	1517	3.745496686017	1
14	1530	3.78175100095	1
14	1658	4.023922879649	1
14	1694	4.093191729327	1
14	1778	4.2059662261	2
14	1855	4.322331013898	2
14	1862	4.324837031126	1
14	1880	4.353032667125	1
14	1917	4.413358390963	1
14	2307	5.010039315363	5
14	2331	5.037094904506	1
14	2535	5.295382686707	3
14	2635	5.397072742511	2
14	2657	5.409229314749	1
14	2664	5.410783026981	1
14	2692	5.418173649512	1
14	2719	5.431026161	1
14	2933	5.592457211622	2
14	2985	5.632844867091	1
14	3004	5.650640607391	1
14	3084	5.699610841506	2
14	3121	5.731234064649	1
14	3444	5.926107935044	1
14	3491	5.953778433739	2
14	3600	6.002267169574	2
14	3610	6.002671167982	1
14	3631	6.008532407041	2
14	3670	6.02567630151	1
14	3689	6.044793072738	1
14	3759	6.065570614219	2
14	3877	6.124339781435	1
14	4030	6.193716890553	1
14	4076	6.20582864107	1
14	4143	6.236116818076	3
14	4283	6.307667195052	3
14	4737	6.53532162181	4
14	4885	6.611868106342	2
14	4913	6.628079140928	1
14	4976	6.653766932709	1
14	4987	6.657918315474	1
14	5000	6.66670847013	1
14	5089	6.712602571625	1
14	5228	6.773690078359	2
14	5349	6.839820770264	2
14	5475	6.896438393995	4
14	5500	6.909310925678	1
14	5702	6.999992206431	2
14	5719	7.002202646406	1
14	5820	7.057835433202	1
14	5887	7.095158593725	2
14	5908	7.103112597175	1
14	6071	7.173842567359	2
14	6354	7.288328723289	3
14	6560	7.386865385448	3
14	6600	7.404260755578	2
14	6729	7.464573397015	1
14	6855	7.521025825161	1
14	7001	7.600384828463	2
14	7158	7.674035809266	2
14	7298	7.737977060709	1
14	7386	7.77833083212	2
14	7534	7.849132856135	2
14	7608	7.87887262254	1
14	7622	7.880624209517	1
14	7809	7.959519049885	1
14	8025	8.042680860718	4
14	8043	8.043958271978	1
14	8078	8.061114727606	1
14	8113	8.080013212407	1
14	8214	8.124729995692	1
14	8233	8.128864289636	1
14	8267	8.135878241444	1
14	8437	8.213961907395	1
14	8559	8.270655869912	2
14	8691	8.345515352069	2
14	8719	8.353467832659	2
14	8943	8.467051921959	4
14	8964	8.476775024983	1
14	9096	8.537723875962	2
14	9176	8.573366527523	2
14	9183	8.575052005755	1
14	9287	8.627472285095	1
14	9367	8.655712489826	1
14	9432	8.690499465828	1
14	9647	8.792931947092	4
14	9791	8.873478988546	2
14	9830	8.892257441795	1
14	9892	8.922501300849	1
14	10119	9.034166352409	3
14	10136	9.039465695623	1
14	10317	9.131631867247	4
14	10343	9.142625294021	1
14	10462	9.198513654859	1
14	10578	9.239248417694	3
14	10681	9.277335733338	1
14	10757	9.310212380316	2
14	10792	9.323275810666	2
14	10806	9.328628154035	1
14	10889	9.360496403228	1
14	10929	9.375943928747	1
14	11050	9.413897355248	1
14	11085	9.426259530054	1
14	11222	9.482345257466	2
14	11282	9.504353445681	2
14	11379	9.543143151236	1
14	11488	9.584822880087	3
14	11576	9.619292012655	1
14	11671	9.655342157364	2
14	11792	9.701006910395	1
14	11810	9.706953953678	1
14	12111	9.801060256606	4
14	12279	9.860638935657	3
14	12384	9.900635031772	1
14	12597	9.983106219322	3
14	12825	10.064151885097	5
14	13001	10.140963459877	4
14	13165	10.199035250052	2
14	13212	10.212762447522	1
14	13372	10.274154216978	2
14	13671	10.3879320785	4
14	13721	10.415184751357	1
14	13925	10.506557451794	1
14	14193	10.613910791134	5
14	14464	10.731748801784	5
14	14487	10.741575456823	1
14	14536	10.7615730073	1
14	14619	10.79229581389	1
14	14919	10.919158289122	2
14	14951	10.934324426683	2
14	15042	10.982037666909	1
14	15209	11.05325652198	2
14	15418	11.156819735005	3
14	15460	11.177682302449	3
14	15631	11.272885289318	3
14	15774	11.346173187242	1
14	16013	11.450959884032	3
14	16035	11.461655871716	2
14	16050	11.465796349498	1
14	16232	11.53802667097	2
14	16247	11.545293545662	1
14	16349	11.580401284401	1
14	16424	11.614881771894	1
14	16680	11.735238072909	4
14	16910	11.83660086575	5
14	16931	11.839485146685	2
14	17041	11.887373896709	1
14	17165	11.92639171155	2
14	17271	11.975236400164	2
14	17309	11.989402639435	2
14	17449	12.030753612387	1
14	17576	12.078663229289	1
14	17726	12.134684814343	2
14	17895	12.210248871607	6
14	18138	12.323619274406	4
14	18248	12.379135799885	1
14	18474	12.473950395382	2
14	18606	12.511816199288	3
14	18706	12.572042085095	2
14	18723	12.578936201378	1
14	19172	12.814016284122	5
14	19785	13.292953274368	9
14	19966	13.45885565963	1
14	20128	13.613604569738	3
14	20210	13.706802910637	3
14	20412	13.83609136852	3
14	20526	13.908139281506	1
14	20550	13.917489950124	1
14	20573	13.935730391709	1
14	20626	13.96845601694	1
14	20892	14.15116154776	4
14	21002	14.241594584026	1
14	21089	14.305886007155	2
14	21120	14.323100674637	1
14	21313	14.473665112434	3
14	21324	14.480076835687	1
14	21483	14.633966894624	3
14	21607	14.7456317278	3
14	21614	14.746766496105	1
14	21650	14.761085545993	1
14	21945	15.004521582894	5
14	22203	15.224058437217	3
14	22339	15.348448307201	2
14	22382	15.397407163175	2
14	22453	15.440886790364	1
14	22797	15.770977395198	3
14	22937	15.899718716772	2
14	23088	16.035816892915	2
14	23330	16.336017738264	1
14	23534	16.538585368607	2
14	23851	16.860342286017	2
14	23858	16.863263456211	1
14	23995	16.995702907353	1
14	24217	17.199302500639	1
14	24292	17.285282014293	2
14	24316	17.319507570766	1
14	24481	17.582072491814	1
14	24596	17.72690266776	2
14	24603	17.737129871534	1
14	24677	17.814624032589	1
14	24996	18.243858619304	2
14	25148	18.428465431587	2
14	25181	18.49343806101	1
14	25579	19.009821706859	2
14	25609	19.092182710771	1
14	25616	19.095740894209	1
14	25843	19.467885524791	2
14	25882	19.535162282757	1
14	25978	19.679839083374	1
14	26234	20.028539824585	3
14	26272	20.092509817791	1
14	26286	20.112866267502	1
14	26485	20.34705260955	3
14	26608	20.488309849675	2
14	26636	20.514102156425	1
14	26890	20.773575144966	4
14	27224	21.142641100595	5
14	27314	21.232726470041	1
14	27352	21.265861776565	1
14	27534	21.475790805978	1
14	27546	21.48102003039	1
14	27765	21.737495531002	4
14	27833	21.807446785154	2
14	27885	21.858305720782	2
14	27918	21.880844184754	1
14	27931	21.899968641122	1
14	28350	22.452597156718	8
14	28364	22.469266124941	1
14	28483	22.620213942309	2
14	29013	23.255789885727	6
14	29435	23.923219742911	4
14	29481	24.003482907596	2
14	29606	24.182180001921	2
14	29696	24.345960392782	4
14	29757	24.437581969009	2
14	29833	24.507524137644	1
14	29883	24.570447160212	1
14	30006	24.756441592293	3
14	30066	24.855737713914	1
14	30292	25.123873518014	1
14	30344	25.166656353887	2
14	30360	25.198164297627	1
14	30427	25.268076366557	1
14	30468	25.33175907051	1
14	30479	25.335103915587	1
14	30891	25.835402530274	5
14	30984	25.949918150662	2
14	31015	26.015926570773	1
14	31356	26.502676592461	3
14	31365	26.518094916062	1
14	31504	26.674623825287	2
14	31566	26.756832069537	1
14	31651	26.920044980473	2
14	31811	27.162995350072	2
14	31820	27.169487236324	1
14	31827	27.172746798949	1
14	31976	27.351008284535	1
14	32031	27.421747093773	2
14	32051	27.445802397729	1
14	32237	27.751740320255	1
14	32414	28.078011795859	1
14	32444	28.130315199837	1
14	32502	28.221046462187	1
14	32525	28.241356857841	1
14	32534	28.260342106361	1
14	32618	28.348062871425	1
14	32665	28.406870459603	1
14	32679	28.418818543562	1
14	32808	28.654152286372	1
14	32895	28.770850380696	1
14	33254	29.518183675032	2
14	33319	29.629523694973	1
14	33454	29.848628296039	1
14	33579	30.063572847886	1
14	33647	30.221899018637	2
14	33767	30.473114909039	1
14	33970	30.787244958928	4
14	34028	30.897447595889	1
14	34050	30.944362084722	1
14	34149	31.135696421887	1
14	34339	31.370719355693	3
14	34587	31.767019395873	3
14	34628	31.8263826096	1
14	34670	31.877248196088	1
14	34803	32.027974772076	1
14	34943	32.215638283449	1
14	35003	32.318254183906	2
14	35037	32.348627307489	1
14	35115	32.438236628579	1
14	35181	32.515352402454	1
14	35378	32.794049887495	1
14	35401	32.819865510365	1
14	35718	33.541136256549	1
14	35854	33.787580122747	1
14	35979	33.989307703607	2
14	36028	34.080518763176	1
14	36056	34.126162161728	1
14	36112	34.255297890201	1
14	36126	34.272149669977	1
14	36264	34.509441365728	2
14	36307	34.60035865415	1
14	36459	34.836977584201	2
14	36586	35.0122938557	1
14	36666	35.171633492845	1
14	36791	35.421903460647	1
14	36825	35.486106568166	1
14	36872	35.547611039643	1
14	37046	35.851206215254	2
14	37062	35.870792002795	1
14	37112	35.961363198712	2
14	37153	36.007442166083	1
14	37173	36.026664703081	1
14	37184	36.050319130687	1
14	37233	36.107408802733	1
14	37433	36.435085720988	1
14	37467	36.458329225575	1
14	37491	36.499452165778	1
14	37516	36.540797659816	1
14	37563	36.573455380425	1
14	37604	36.651139955954	1
14	37782	36.925469039152	1
14	37815	36.97459657884	1
14	37858	37.021602870298	1
14	37952	37.132096716303	1
14	37961	37.133594039152	1
14	37975	37.14528786296	1
14	38063	37.251746795411	1
14	38131	37.373941015314	1
14	38262	37.541858319781	2
14	38368	37.653633350394	1
14	38447	37.744188529947	2
14	38550	37.871932257008	1
14	38689	38.044106026223	2
14	38777	38.13680485128	2
14	38798	38.179668934122	1
14	38870	38.283177695973	1
14	38880	38.285181929049	1
14	38960	38.393869967119	1
14	38967	38.395309977036	1
14	38977	38.416271067698	1
14	39148	38.762553556159	1
14	39176	38.830785698644	1
14	39193	38.835216721319	1
14	39266	38.947782601936	2
14	39353	39.08234121898	1
14	39397	39.166197774387	1
14	39450	39.257871607816	2
14	39517	39.420390347162	1
14	39584	39.560283141679	1
14	39652	39.691643134724	1
14	39695	39.748550227179	1
14	39811	39.977706543385	1
14	40120	40.501070858599	1
14	40201	40.61798654346	1
14	40291	40.736345830057	1
14	40323	40.794154715032	1
14	40457	40.983293128121	2
14	40563	41.191418128121	1
14	40668	41.424461406191	1
14	40918	41.884734135153	2
14	40927	41.89014609892	1
14	41003	41.979324628164	1
14	41136	42.121366985175	2
14	41146	42.128790252873	1
14	41178	42.185774280669	1
14	41208	42.245363239432	1
14	41274	42.378171903234	1
14	41300	42.425249840138	1
14	41433	42.637594679869	2
14	41516	42.773723854127	1
14	41557	42.827919223142	2
14	41790	43.210747498225	1
14	41865	43.31990248643	1
14	41896	43.372956379528	1
14	42103	43.641544062622	1
14	42188	43.784294522635	1
14	42204	43.787739033698	1
14	42250	43.827281726032	1
14	42285	43.866158196215	1
14	42331	43.904966811665	1
14	42412	43.997649235856	1
14	42496	44.099013000405	1
14	42524	44.119661836448	1
14	42545	44.164418734644	1
14	42746	44.390874750531	2
14	42816	44.505530003131	1
14	42836	44.522263232769	1
14	42853	44.536851393963	1
14	42958	44.685899855536	1
14	42987	44.728107515699	1
14	43005	44.739724451816	1
14	43229	45.166216179629	3
14	43252	45.179591090739	1
14	43259	45.181423334199	1
14	43412	45.404007580732	2
14	43485	45.553383982483	1
14	43501	45.596202137902	1
14	43508	45.601134225054	1
14	43695	45.915715542248	1
14	43783	46.033285540542	1
14	43808	46.074890064671	1
14	43958	46.301816905849	1
14	44068	46.431531584148	1
14	44147	46.546641457019	1
14	44210	46.720007806575	1
14	44263	46.813969392674	1
14	44319	46.884994093116	1
14	44441	47.068362105757	1
14	44448	47.069900862522	1
14	44472	47.114355410423	1
14	44580	47.254524955898	1
14	44616	47.30172620995	1
14	44651	47.335986353954	1
14	44674	47.386314122844	1
14	44793	47.530852799389	1
14	44900	47.687461991068	1
14	44995	47.819614306763	2
14	45255	48.236454011397	1
14	45281	48.276150088057	1
14	45317	48.321752483924	1
14	45368	48.401558146693	1
14	45410	48.473688591387	1
14	45485	48.594164148307	1
14	45522	48.651547163136	1
14	45585	48.758086993702	1
14	45629	48.809937739259	1
14	45730	48.95565455864	1
14	45757	48.996652079718	1
14	45801	49.056569457841	1
14	45904	49.19853916785	1
14	45964	49.302354271977	1
14	46124	49.536321832199	1
14	46218	49.66049318548	1
14	46341	49.862080789318	1
14	46542	50.214868644805	1
14	46591	50.307660397627	2
14	46678	50.462885632675	1
14	46816	50.691869282309	1
14	47029	51.005319395815	1
14	47058	51.063614636334	1
14	47189	51.287639158108	1
14	47264	51.410815975508	1
14	47369	51.547725832002	1
14	47401	51.605151403248	1
14	47743	52.109731162694	3
14	47764	52.149278430747	1
14	47908	52.299251949383	1
14	48133	52.668815793721	1
14	48328	53.0652601523	1
14	48335	53.071786045414	1
14	48466	53.326190775856	1
14	48539	53.453524703294	1
14	48555	53.462687751772	1
14	48564	53.468967240849	1
14	48725	53.812279103291	1
14	48807	53.95263263423	1
14	48909	54.088969931601	1
14	48955	54.14428750227	1
14	49242	54.56869743924	2
14	49387	54.79188509323	1
14	49589	55.184015866501	1
14	49730	55.545924417202	1
14	49748	55.604816133415	1
14	50023	56.296750202767	1
14	50146	56.594900655353	1
14	50298	56.982100158722	1
14	50483	57.402705983389	1
14	50550	57.541065095362	1
14	50673	57.747192425196	1
14	50785	57.955317425196	1
14	50827	58.042095033698	1
14	50842	58.077830331191	1
14	50849	58.08217450291	1
14	50877	58.115541024612	1
14	51160	58.616041012364	1
14	51182	58.653353904393	1
14	51204	58.678270584213	1
14	51281	58.790366503655	1
14	51441	59.018491424398	1
14	51448	59.020062682694	1
14	51553	59.139263831858	1
14	51610	59.218553474423	1
14	51647	59.267661238565	1
14	51763	59.46056827612	1
14	51899	59.634388832571	1
14	51931	59.668980005085	1
14	52066	59.856813447094	1
14	52116	59.930442887782	1
14	52128	59.9333686784	1
14	52160	59.970538141094	1
14	52299	60.223623426128	1
14	52461	60.451464922125	2
14	52502	60.526974077126	1
14	52516	60.539444598956	1
14	52578	60.636803419201	1
14	52607	60.671317685814	1
14	52676	60.808847332731	2
14	52765	60.988938238691	1
14	52783	61.00068639343	1
14	52897	61.248980630757	1
14	52931	61.337366235679	1
14	52991	61.442644864692	1
14	53082	61.650134190432	1
14	53095	61.674405024814	1
14	53350	62.132065403612	2
14	53361	62.147336782174	1
14	53475	62.338743759062	1
14	53558	62.477993350109	1
14	53567	62.49210810509	1
15	47	0.11417169956	1
15	71	0.272760580815	1
15	107	0.428148438278	1
15	141	0.561364993391	1
15	142	0.561364993391	1
15	179	0.636273438278	0.83333333333333
15	224	0.769489993391	0.71428571428571
15	260	0.881685797062	0.75
15	264	0.887775472886	0.77777777777778
15	265	0.887775472886	0.8
15	284	0.971418796045	0.81818181818182
15	285	0.971418796045	0.83333333333333
15	291	0.981906372642	0.84615384615385
15	357	1.207329858726	0.85714285714286
15	358	1.207329858726	0.86666666666667
15	477	1.475255137588	0.8125
15	507	1.514872926221	0.76470588235294
15	521	1.577935191042	0.77777777777778
15	527	1.591201453406	0.78947368421053
15	528	1.591201453406	0.8
15	552	1.61436523455	0.80952380952381
15	603	1.765970839707	0.81818181818182
15	610	1.773109525962	0.82608695652174
15	611	1.773109525962	0.83333333333333
15	617	1.781837585659	0.84
15	618	1.781837585659	0.84615384615385
15	631	1.805089088326	0.85185185185185
15	660	1.867027235736	0.85714285714286
15	732	2.008069772788	0.86206896551724
15	733	2.008069772788	0.86666666666667
15	751	2.0380380997	0.87096774193548
15	797	2.129413222592	0.875
15	798	2.129413222592	0.87878787878788
15	841	2.190416358799	0.88235294117647
15	874	2.277368273284	0.85714285714286
15	886	2.30366078129	0.86111111111111
15	887	2.30366078129	0.86486486486486
15	1018	2.619453852459	0.84210526315789
15	1027	2.627591497192	0.82051282051282
15	1040	2.674724796606	0.825
15	1041	2.674724796606	0.82926829268293
15	1156	2.984443971941	0.83333333333333
15	1157	2.984443971941	0.83720930232558
15	1185	3.029297489609	0.84090909090909
15	1224	3.100754594716	0.84444444444444
15	1225	3.100754594716	0.84782608695652
15	1283	3.255058378965	0.85106382978723
15	1284	3.255058378965	0.85416666666667
15	1290	3.26499285321	0.85714285714286
15	1366	3.40010886679	0.86
15	1404	3.505175863909	0.86274509803922
15	1405	3.505175863909	0.86538461538462
15	1433	3.55290773702	0.84905660377358
15	1463	3.616575375942	0.83333333333333
15	1471	3.625894844465	0.83636363636364
15	1472	3.625894844465	0.83928571428571
15	1505	3.721653620298	0.84210526315789
15	1518	3.745496686017	0.8448275862069
15	1519	3.745496686017	0.84745762711864
15	1531	3.78175100095	0.85
15	1532	3.78175100095	0.85245901639344
15	1604	3.918546934658	0.85483870967742
15	1659	4.023922879649	0.85714285714286
15	1660	4.023922879649	0.859375
15	1691	4.084272533707	0.86153846153846
15	1695	4.093191729327	0.86363636363636
15	1696	4.093191729327	0.86567164179104
15	1775	4.205950024811	0.86764705882353
15	1779	4.2059662261	0.8695652173913
15	1780	4.2059662261	0.87142857142857
15	1801	4.235759243408	0.85915492957746
15	1814	4.251947430471	0.84722222222222
15	1852	4.320479589559	0.84931506849315
15	1856	4.322331013898	0.85135135135135
15	1857	4.322331013898	0.85333333333333
15	1863	4.324837031126	0.85526315789474
15	1864	4.324837031126	0.85714285714286
15	1881	4.353032667125	0.85897435897436
15	1882	4.353032667125	0.86075949367089
15	1918	4.413358390963	0.8625
15	1919	4.413358390963	0.8641975308642
15	2021	4.589637254061	0.86585365853659
15	2051	4.642546937023	0.86746987951807
15	2071	4.663983925756	0.86904761904762
15	2114	4.762031443579	0.87058823529412
15	2227	4.9073686244	0.87209302325581
15	2235	4.91445634053	0.86206896551724
15	2269	4.957457385144	0.85227272727273
15	2280	4.983640005501	0.84269662921348
15	2308	5.010039315363	0.84444444444444
15	2309	5.010039315363	0.84615384615385
15	2332	5.037094904506	0.84782608695652
15	2333	5.037094904506	0.8494623655914
15	2481	5.247342491438	0.85106382978723
15	2499	5.253430173085	0.85263157894737
15	2536	5.295382686707	0.85416666666667
15	2537	5.295382686707	0.85567010309278
15	2590	5.334874443159	0.85714285714286
15	2596	5.352407592809	0.84848484848485
15	2636	5.397072742511	0.85
15	2637	5.397072742511	0.85148514851485
15	2643	5.397218052912	0.85294117647059
15	2658	5.409229314749	0.85436893203883
15	2659	5.409229314749	0.85576923076923
15	2665	5.410783026981	0.85714285714286
15	2666	5.410783026981	0.85849056603774
15	2693	5.418173649512	0.85981308411215
15	2694	5.418173649512	0.86111111111111
15	2720	5.431026161	0.86238532110092
15	2721	5.431026161	0.86363636363636
15	2734	5.434748352431	0.86486486486486
15	2825	5.518647745441	0.86607142857143
15	2832	5.518869738906	0.85840707964602
15	2893	5.563048448096	0.85964912280702
15	2934	5.592457211622	0.86086956521739
15	2935	5.592457211622	0.86206896551724
15	2986	5.632844867091	0.86324786324786
15	2987	5.632844867091	0.86440677966102
15	3005	5.650640607391	0.86554621848739
15	3006	5.650640607391	0.86666666666667
15	3012	5.653894279784	0.86776859504132
15	3028	5.66421067729	0.86065573770492
15	3085	5.699610841506	0.86178861788618
15	3086	5.699610841506	0.86290322580645
15	3095	5.702523188144	0.856
15	3122	5.731234064649	0.85714285714286
15	3123	5.731234064649	0.85826771653543
15	3153	5.746522985121	0.859375
15	3191	5.771299075499	0.86046511627907
15	3257	5.809881901259	0.86153846153846
15	3445	5.926107935044	0.86259541984733
15	3446	5.926107935044	0.86363636363636
15	3454	5.931659175709	0.86466165413534
15	3458	5.932608396437	0.86567164179104
15	3492	5.953778433739	0.86666666666667
15	3493	5.953778433739	0.86764705882353
15	3514	5.96247603074	0.86861313868613
15	3553	5.979884860084	0.8695652173913
15	3601	6.002267169574	0.8705035971223
15	3602	6.002267169574	0.87142857142857
15	3611	6.002671167982	0.87234042553191
15	3612	6.002671167982	0.87323943661972
15	3628	6.007536742326	0.87412587412587
15	3632	6.008532407041	0.875
15	3633	6.008532407041	0.87586206896552
15	3671	6.02567630151	0.87671232876712
15	3672	6.02567630151	0.87755102040816
15	3690	6.044793072738	0.87837837837838
15	3691	6.044793072738	0.87919463087248
15	3735	6.058961458414	0.88
15	3748	6.061948493358	0.88079470198675
15	3760	6.065570614219	0.88157894736842
15	3761	6.065570614219	0.88235294117647
15	3769	6.066635900761	0.87662337662338
15	3842	6.104928806271	0.87741935483871
15	3866	6.120298595318	0.87820512820513
15	3878	6.124339781435	0.87898089171975
15	3879	6.124339781435	0.87974683544304
15	3969	6.163833610135	0.88050314465409
15	4009	6.175814982012	0.875
15	4031	6.193716890553	0.87577639751553
15	4032	6.193716890553	0.87654320987654
15	4060	6.201763068784	0.87116564417178
15	4077	6.20582864107	0.8719512195122
15	4078	6.20582864107	0.87272727272727
15	4119	6.224591178105	0.87349397590361
15	4125	6.225158567728	0.87425149700599
15	4144	6.236116818076	0.875
15	4145	6.236116818076	0.87573964497041
15	4186	6.262984241516	0.87058823529412
15	4199	6.264685185174	0.87134502923977
15	4203	6.264691565692	0.87209302325581
15	4284	6.307667195052	0.8728323699422
15	4285	6.307667195052	0.8735632183908
15	4453	6.378751421044	0.87428571428571
15	4495	6.397289090471	0.86931818181818
15	4575	6.443787929323	0.86440677966102
15	4581	6.445197267085	0.85955056179775
15	4613	6.465460180747	0.86033519553073
15	4632	6.481539698147	0.86111111111111
15	4658	6.487612505715	0.86187845303867
15	4666	6.488524177923	0.85714285714286
15	4738	6.53532162181	0.85792349726776
15	4739	6.53532162181	0.85869565217391
15	4749	6.538925857299	0.85405405405405
15	4786	6.555092818954	0.85483870967742
15	4790	6.555918600091	0.85026737967914
15	4856	6.598137905379	0.85106382978723
15	4886	6.611868106342	0.85185185185185
15	4887	6.611868106342	0.85263157894737
15	4914	6.628079140928	0.85340314136126
15	4915	6.628079140928	0.85416666666667
15	4977	6.653766932709	0.85492227979275
15	4978	6.653766932709	0.85567010309278
15	4988	6.657918315474	0.85641025641026
15	4989	6.657918315474	0.85714285714286
15	5001	6.66670847013	0.85786802030457
15	5002	6.66670847013	0.85858585858586
15	5020	6.674345518806	0.85929648241206
15	5083	6.708430381926	0.86
15	5090	6.712602571625	0.86069651741294
15	5091	6.712602571625	0.86138613861386
15	5152	6.739976217418	0.86206896551724
15	5161	6.743670318789	0.86274509803922
15	5203	6.76427203845	0.86341463414634
15	5229	6.773690078359	0.86407766990291
15	5230	6.773690078359	0.86473429951691
15	5277	6.793824328807	0.86538461538462
15	5350	6.839820770264	0.86602870813397
15	5351	6.839820770264	0.86666666666667
15	5360	6.841089000757	0.86729857819905
15	5424	6.876104874578	0.86792452830189
15	5439	6.883436854323	0.86854460093897
15	5453	6.888055697057	0.86915887850467
15	5476	6.896438393995	0.86976744186047
15	5477	6.896438393995	0.87037037037037
15	5501	6.909310925678	0.87096774193548
15	5502	6.909310925678	0.87155963302752
15	5526	6.914485670571	0.87214611872146
15	5588	6.939511352953	0.87272727272727
15	5703	6.999992206431	0.87330316742081
15	5704	6.999992206431	0.87387387387387
15	5720	7.002202646406	0.87443946188341
15	5721	7.002202646406	0.875
15	5749	7.01732907432	0.87555555555556
15	5797	7.04069704666	0.8716814159292
15	5821	7.057835433202	0.87224669603524
15	5822	7.057835433202	0.87280701754386
15	5860	7.080033816789	0.87336244541485
15	5874	7.088090609521	0.87391304347826
15	5888	7.095158593725	0.87445887445887
15	5889	7.095158593725	0.875
15	5901	7.100052088575	0.8755364806867
15	5909	7.103112597175	0.87606837606838
15	5910	7.103112597175	0.87659574468085
15	5980	7.127221016276	0.8771186440678
15	6015	7.1420109732	0.87763713080169
15	6072	7.173842567359	0.8781512605042
15	6073	7.173842567359	0.87866108786611
15	6166	7.211918572117	0.875
15	6261	7.258134423563	0.87551867219917
15	6324	7.279690897577	0.87603305785124
15	6355	7.288328723289	0.87654320987654
15	6356	7.288328723289	0.87704918032787
15	6364	7.292380369563	0.87755102040816
15	6381	7.302471459981	0.8780487804878
15	6438	7.330601751034	0.87854251012146
15	6561	7.386865385448	0.87903225806452
15	6562	7.386865385448	0.87951807228916
15	6570	7.387710881223	0.88
15	6601	7.404260755578	0.8804780876494
15	6602	7.404260755578	0.88095238095238
15	6685	7.45259042677	0.88142292490119
15	6730	7.464573397015	0.88188976377953
15	6731	7.464573397015	0.88235294117647
15	6749	7.471629932261	0.87890625
15	6856	7.521025825161	0.87937743190661
15	6857	7.521025825161	0.87984496124031
15	6919	7.559359301231	0.88030888030888
15	6930	7.560924692164	0.87692307692308
15	7002	7.600384828463	0.87739463601533
15	7003	7.600384828463	0.87786259541985
15	7059	7.624314125542	0.8745247148289
15	7063	7.624794939528	0.875
15	7106	7.642542407383	0.87547169811321
15	7159	7.674035809266	0.87593984962406
15	7160	7.674035809266	0.87640449438202
15	7203	7.692780491465	0.87686567164179
15	7239	7.710857249297	0.87360594795539
15	7285	7.732640894402	0.87037037037037
15	7299	7.737977060709	0.87084870848708
15	7300	7.737977060709	0.87132352941176
15	7323	7.747274933419	0.87179487179487
15	7327	7.747334487406	0.87226277372263
15	7387	7.77833083212	0.87272727272727
15	7388	7.77833083212	0.8731884057971
15	7471	7.824241128736	0.87364620938628
15	7475	7.824344358116	0.87410071942446
15	7535	7.849132856135	0.87455197132616
15	7536	7.849132856135	0.875
15	7609	7.87887262254	0.87544483985765
15	7610	7.87887262254	0.8758865248227
15	7616	7.879189491499	0.87632508833922
15	7623	7.880624209517	0.87676056338028
15	7624	7.880624209517	0.87719298245614
15	7806	7.959149501369	0.87762237762238
15	7810	7.959519049885	0.8780487804878
15	7811	7.959519049885	0.87847222222222
15	7817	7.960099818177	0.87889273356401
15	7826	7.963991964665	0.87931034482759
15	7897	7.985382896327	0.87972508591065
15	7960	8.014801559747	0.87671232876712
15	7985	8.028057739705	0.87713310580205
15	7989	8.028166867475	0.87755102040816
15	8026	8.042680860718	0.87796610169492
15	8027	8.042680860718	0.87837837837838
15	8044	8.043958271978	0.87878787878788
15	8045	8.043958271978	0.87919463087248
15	8051	8.044425202515	0.87959866220736
15	8079	8.061114727606	0.88
15	8080	8.061114727606	0.88039867109635
15	8097	8.072145489923	0.87748344370861
15	8114	8.080013212407	0.87788778877888
15	8115	8.080013212407	0.87828947368421
15	8180	8.113374043944	0.87540983606557
15	8215	8.124729995692	0.87581699346405
15	8216	8.124729995692	0.87622149837134
15	8230	8.12817065011	0.87662337662338
15	8234	8.128864289636	0.87702265372168
15	8235	8.128864289636	0.87741935483871
15	8241	8.129631722636	0.87781350482315
15	8268	8.135878241444	0.87820512820513
15	8269	8.135878241444	0.87859424920128
15	8303	8.147709221964	0.87579617834395
15	8408	8.195540155704	0.87301587301587
15	8432	8.211166022847	0.87341772151899
15	8438	8.213961907395	0.87381703470032
15	8439	8.213961907395	0.87421383647799
15	8468	8.222750175566	0.87460815047022
15	8556	8.269830924487	0.875
15	8560	8.270655869912	0.87538940809969
15	8561	8.270655869912	0.87577639751553
15	8592	8.283315692033	0.87616099071207
15	8692	8.345515352069	0.87654320987654
15	8693	8.345515352069	0.87692307692308
15	8704	8.35297890015	0.87730061349693
15	8720	8.353467832659	0.87767584097859
15	8721	8.353467832659	0.8780487804878
15	8754	8.367890918725	0.87841945288754
15	8784	8.381390920357	0.87878787878788
15	8851	8.424639407252	0.87915407854985
15	8916	8.457329914443	0.87650602409639
15	8938	8.464727883204	0.87687687687688
15	8944	8.467051921959	0.87724550898204
15	8945	8.467051921959	0.87761194029851
15	8965	8.476775024983	0.87797619047619
15	8966	8.476775024983	0.87833827893175
15	8972	8.477132625744	0.87869822485207
15	9097	8.537723875962	0.87905604719764
15	9098	8.537723875962	0.87941176470588
15	9136	8.561150793546	0.87683284457478
15	9145	8.563288944317	0.87719298245614
15	9177	8.573366527523	0.87755102040816
15	9178	8.573366527523	0.87790697674419
15	9184	8.575052005755	0.87826086956522
15	9185	8.575052005755	0.87861271676301
15	9237	8.600522514693	0.87896253602305
15	9288	8.627472285095	0.87931034482759
15	9289	8.627472285095	0.87965616045845
15	9368	8.655712489826	0.88
15	9369	8.655712489826	0.88034188034188
15	9433	8.690499465828	0.88068181818182