version 2
run General-0-20150601-22:25:06-7736
attr configname General
attr datetime 20150601-22:25:06
attr experiment General
attr inifile omnetpp.ini
attr iterationvars ""
attr iterationvars2 $repetition=0
attr measurement ""
attr network Wsn
attr processid 7736
attr repetition 0
attr replication #0
attr resultdir results
attr runnumber 0
attr seedset 0

vector 26  Wsn.Sensor_0.queue  "rate of channel"  ETV
vector 29  Wsn.Sensor_1.queue  "rate of channel"  ETV
vector 32  Wsn.Sensor_2.queue  "rate of channel"  ETV
vector 35  Wsn.Sensor_3.queue  "rate of channel"  ETV
vector 38  Wsn.Sensor_4.queue  "rate of channel"  ETV
vector 41  Wsn.Sensor_5.queue  "rate of channel"  ETV
vector 44  Wsn.Sensor_6.queue  "rate of channel"  ETV
vector 47  Wsn.Sensor_7.queue  "rate of channel"  ETV
vector 50  Wsn.Sensor_8.queue  "rate of channel"  ETV
vector 53  Wsn.Sensor_9.queue  "rate of channel"  ETV
vector 56  Wsn.Sensor_10.queue  "rate of channel"  ETV
vector 27  Wsn.Sensor_0.control  time  ETV
vector 28  Wsn.Sensor_0.control  "length of the queue"  ETV
vector 30  Wsn.Sensor_1.control  time  ETV
vector 31  Wsn.Sensor_1.control  "length of the queue"  ETV
vector 33  Wsn.Sensor_2.control  time  ETV
vector 34  Wsn.Sensor_2.control  "length of the queue"  ETV
vector 36  Wsn.Sensor_3.control  time  ETV
vector 37  Wsn.Sensor_3.control  "length of the queue"  ETV
vector 39  Wsn.Sensor_4.control  time  ETV
vector 40  Wsn.Sensor_4.control  "length of the queue"  ETV
vector 42  Wsn.Sensor_5.control  time  ETV
vector 43  Wsn.Sensor_5.control  "length of the queue"  ETV
vector 45  Wsn.Sensor_6.control  time  ETV
vector 46  Wsn.Sensor_6.control  "length of the queue"  ETV
vector 48  Wsn.Sensor_7.control  time  ETV
vector 49  Wsn.Sensor_7.control  "length of the queue"  ETV
vector 51  Wsn.Sensor_8.control  time  ETV
vector 52  Wsn.Sensor_8.control  "length of the queue"  ETV
vector 54  Wsn.Sensor_9.control  time  ETV
vector 55  Wsn.Sensor_9.control  "length of the queue"  ETV
vector 57  Wsn.Sensor_10.control  time  ETV
vector 58  Wsn.Sensor_10.control  "length of the queue"  ETV
26	12	0	1
27	23	0	0.5288949215319
28	23	0	0
29	13	0	1
30	24	0	0.47997717140242
31	24	0	0
32	14	0	1
33	25	0	0.56804456375539
34	25	0	0
35	15	0	1
36	26	0	0.39278479316272
37	26	0	0
38	16	0	1
39	27	0	0.92559663322754
40	27	0	0
41	17	0	1
42	28	0	0.83607876882888
43	28	0	0
44	18	0	1
45	29	0	0.071036058710888
46	29	0	0
47	19	0	1
48	30	0	0.33739616163075
49	30	0	0
50	20	0	1
51	31	0	0.08712929696776
52	31	0	0
53	21	0	1
54	32	0	0.64817187655717
55	32	0	0
56	22	0	1
57	33	0	0.020218399120495
58	33	0	0
