version 2
run General-0-20150601-01:58:05-10454
attr configname General
attr datetime 20150601-01:58:05
attr experiment General
attr inifile omnetpp.ini
attr iterationvars ""
attr iterationvars2 $repetition=0
attr measurement ""
attr network Wsn
attr processid 10454
attr repetition 0
attr replication #0
attr resultdir results
attr runnumber 0
attr seedset 0

vector 26  Wsn.Sensor_0.queue  "rate of channel"  ETV
vector 29  Wsn.Sensor_1.queue  "rate of channel"  ETV
vector 32  Wsn.Sensor_2.queue  "rate of channel"  ETV
vector 35  Wsn.Sensor_3.queue  "rate of channel"  ETV
vector 38  Wsn.Sensor_4.queue  "rate of channel"  ETV
vector 41  Wsn.Sensor_5.queue  "rate of channel"  ETV
vector 44  Wsn.Sensor_6.queue  "rate of channel"  ETV
vector 47  Wsn.Sensor_7.queue  "rate of channel"  ETV
vector 50  Wsn.Sensor_8.queue  "rate of channel"  ETV
vector 53  Wsn.Sensor_9.queue  "rate of channel"  ETV
vector 56  Wsn.Sensor_10.queue  "rate of channel"  ETV
vector 27  Wsn.Sensor_0.control  time  ETV
vector 28  Wsn.Sensor_0.control  "length of the queue"  ETV
vector 30  Wsn.Sensor_1.control  time  ETV
vector 31  Wsn.Sensor_1.control  "length of the queue"  ETV
vector 33  Wsn.Sensor_2.control  time  ETV
vector 34  Wsn.Sensor_2.control  "length of the queue"  ETV
vector 36  Wsn.Sensor_3.control  time  ETV
vector 37  Wsn.Sensor_3.control  "length of the queue"  ETV
vector 39  Wsn.Sensor_4.control  time  ETV
vector 40  Wsn.Sensor_4.control  "length of the queue"  ETV
vector 42  Wsn.Sensor_5.control  time  ETV
vector 43  Wsn.Sensor_5.control  "length of the queue"  ETV
vector 45  Wsn.Sensor_6.control  time  ETV
vector 46  Wsn.Sensor_6.control  "length of the queue"  ETV
vector 48  Wsn.Sensor_7.control  time  ETV
vector 49  Wsn.Sensor_7.control  "length of the queue"  ETV
vector 51  Wsn.Sensor_8.control  time  ETV
vector 52  Wsn.Sensor_8.control  "length of the queue"  ETV
vector 54  Wsn.Sensor_9.control  time  ETV
vector 55  Wsn.Sensor_9.control  "length of the queue"  ETV
vector 57  Wsn.Sensor_10.control  time  ETV
vector 58  Wsn.Sensor_10.control  "length of the queue"  ETV
vector 19  Wsn.Sink2.queue  "rate of channel"  ETV
vector 15  Wsn.Sink.queue  "rate of channel"  ETV
vector 20  Wsn.Sink2.control  time  ETV
vector 21  Wsn.Sink2.control  "length of the queue"  ETV
vector 16  Wsn.Sink.control  time  ETV
vector 17  Wsn.Sink.control  "length of the queue"  ETV
15	86	0.2040625	1
15	87	0.2040625	1
15	88	0.2040625	1
15	171	0.61706957194	1
15	180	0.681727611655	1
15	181	0.681727611655	1
15	200	0.740752647127	1
15	201	0.740752647127	1
15	283	0.989852611655	1
15	290	1.005308258541	1
15	317	1.048877647127	1
15	386	1.219100839886	1
15	390	1.227629644058	1
15	422	1.313433258541	0.92857142857143
15	539	1.582811613296	0.93333333333333
15	573	1.679912884448	0.9375
15	612	1.79782642001	0.94117647058824
15	653	1.959979301746	0.94444444444444
15	654	1.959979301746	0.94736842105263
15	666	1.988037884448	0.9
15	787	2.268104301746	0.9047619047619
15	788	2.268104301746	0.90909090909091
15	789	2.268104301746	0.91304347826087
15	806	2.292863194559	0.91666666666667
15	838	2.419176465792	0.92
15	886	2.576229301746	0.88461538461538
15	936	2.678302313161	0.88888888888889
15	937	2.678302313161	0.89285714285714
15	1083	2.986427313161	0.89655172413793
15	1084	2.986427313161	0.9
15	1085	2.986427313161	0.90322580645161
15	1094	2.996600475356	0.90625
15	1095	2.996600475356	0.90909090909091
15	1139	3.149003835589	0.91176470588235
15	1186	3.294552313161	0.88571428571429
15	1213	3.315214855091	0.88888888888889
15	1214	3.315214855091	0.89189189189189
15	1393	3.623339855091	0.86842105263158
15	1415	3.686026352884	0.87179487179487
15	1568	3.930774422555	0.875
15	1572	3.936736840481	0.8780487804878
15	1579	3.988803585019	0.88095238095238
15	1619	4.107907526387	0.88372093023256
15	1852	4.869808143662	0.88636363636364
15	1867	4.910151944455	0.88888888888889
15	1868	4.910151944455	0.89130434782609
15	1942	5.056266362271	0.8936170212766
15	2001	5.214394601018	0.89583333333333
15	2002	5.214394601018	0.89795918367347
15	2014	5.218276944455	0.9
15	2015	5.218276944455	0.90196078431373
15	2070	5.364391362271	0.88461538461538
15	2088	5.411879097302	0.88679245283019
15	2089	5.411879097302	0.88888888888889
15	2131	5.506542131726	0.89090909090909
15	2149	5.526401944455	0.875
15	2190	5.657231415348	0.87719298245614
15	2210	5.720004097302	0.87931034482759
15	2211	5.720004097302	0.88135593220339
15	2307	5.961710948918	0.88333333333333
15	2308	5.961710948918	0.88524590163934
15	2351	6.096396878086	0.88709677419355
15	2352	6.096396878086	0.88888888888889
15	2360	6.114120476603	0.890625
15	2385	6.167547654084	0.89230769230769
15	2425	6.269835948918	0.89393939393939
15	2426	6.269835948918	0.88059701492537
15	2500	6.392700591311	0.88235294117647
15	2506	6.404521878086	0.88405797101449
15	2559	6.475672654084	0.87142857142857
15	2672	6.701013330326	0.87323943661972
15	2691	6.771734363818	0.875
15	2719	6.81634666114	0.87671232876712
15	2761	6.936664417343	0.87837837837838
15	2762	6.936664417343	0.88
15	2860	7.182479877447	0.88157894736842
15	2880	7.244789417343	0.88311688311688
15	2881	7.244789417343	0.88461538461538
15	2900	7.291636105579	0.88607594936709
15	2901	7.291636105579	0.8875
15	2955	7.452174927991	0.88888888888889
15	2961	7.475888014262	0.89024390243902
16	92	0.2040625	0.001
16	93	0.2040625	0.001
16	94	0.2040625	0.001
16	172	0.61706957194	0.001
16	182	0.681727611655	0.001
16	202	0.740752647127	0.001
16	284	0.989852611655	0.001
16	291	1.005308258541	0.001
16	318	1.048877647127	0.001
16	387	1.219100839886	0.001
16	391	1.227629644058	0.001
16	423	1.313433258541	0.001
16	424	1.313433258541	0.001
16	540	1.582811613296	0.001
16	574	1.679912884448	0.001
16	613	1.79782642001	0.001
16	655	1.959979301746	0.001
16	667	1.988037884448	0.001
16	668	1.988037884448	0.001
16	669	1.988037884448	0.001
16	670	1.988037884448	0.001
16	671	1.988037884448	0.001
16	672	1.988037884448	0.001
16	673	1.988037884448	0.001
16	790	2.268104301746	0.001
16	791	2.268104301746	0.001
16	792	2.268104301746	0.001
16	807	2.292863194559	0.001
16	839	2.419176465792	0.001
16	887	2.576229301746	0.001
16	888	2.576229301746	0.001
16	889	2.576229301746	0.001
16	890	2.576229301746	0.001
16	891	2.576229301746	0.001
16	892	2.576229301746	0.001
16	893	2.576229301746	0.001
16	894	2.576229301746	0.001
16	938	2.678302313161	0.001
16	1086	2.986427313161	0.001
16	1087	2.986427313161	0.001
16	1088	2.986427313161	0.001
16	1096	2.996600475356	0.001
16	1140	3.149003835589	0.001
16	1187	3.294552313161	0.001
16	1188	3.294552313161	0.001
16	1189	3.294552313161	0.001
16	1190	3.294552313161	0.001
16	1191	3.294552313161	0.001
16	1192	3.294552313161	0.001
16	1193	3.294552313161	0.001
16	1194	3.294552313161	0.001
16	1195	3.294552313161	0.001
16	1196	3.294552313161	0.001
16	1197	3.294552313161	0.001
16	1215	3.315214855091	0.001
16	1394	3.623339855091	0.001
16	1395	3.623339855091	0.001
16	1396	3.623339855091	0.001
16	1397	3.623339855091	0.001
16	1398	3.623339855091	0.001
16	1399	3.623339855091	0.001
16	1400	3.623339855091	0.001
16	1401	3.623339855091	0.001
16	1402	3.623339855091	0.001
16	1403	3.623339855091	0.001
16	1416	3.686026352884	0.001
16	1569	3.930774422555	0.001
16	1573	3.936736840481	0.001
16	1580	3.988803585019	0.001
16	1620	4.107907526387	0.001
16	1853	4.869808143662	0.001
16	1869	4.910151944455	0.001
16	1943	5.056266362271	0.001
16	2003	5.214394601018	0.001
16	2016	5.218276944455	0.001
16	2017	5.218276944455	0.001
16	2071	5.364391362271	0.001
16	2072	5.364391362271	0.001
16	2073	5.364391362271	0.001
16	2090	5.411879097302	0.001
16	2132	5.506542131726	0.001
16	2150	5.526401944455	0.001
16	2151	5.526401944455	0.001
16	2191	5.657231415348	0.001
16	2212	5.720004097302	0.001
16	2213	5.720004097302	0.001
16	2309	5.961710948918	0.001
16	2353	6.096396878086	0.001
16	2361	6.114120476603	0.001
16	2386	6.167547654084	0.001
16	2427	6.269835948918	0.001
16	2428	6.269835948918	0.001
16	2429	6.269835948918	0.001
16	2430	6.269835948918	0.001
16	2431	6.269835948918	0.001
16	2432	6.269835948918	0.001
16	2433	6.269835948918	0.001
16	2434	6.269835948918	0.001
16	2435	6.269835948918	0.001
16	2501	6.392700591311	0.001
16	2507	6.404521878086	0.001
16	2560	6.475672654084	0.001
16	2561	6.475672654084	0.001
16	2562	6.475672654084	0.001
16	2673	6.701013330326	0.001
16	2692	6.771734363818	0.001
16	2720	6.81634666114	0.001
16	2763	6.936664417343	0.001
16	2861	7.182479877447	0.001
16	2882	7.244789417343	0.001
16	2883	7.244789417343	0.001
16	2902	7.291636105579	0.001
16	2956	7.452174927991	0.001
16	2962	7.475888014262	0.001
17	92	0.2040625	1
17	93	0.2040625	1
17	94	0.2040625	1
17	172	0.61706957194	1
17	182	0.681727611655	1
17	202	0.740752647127	1
17	284	0.989852611655	1
17	291	1.005308258541	1
17	318	1.048877647127	1
17	387	1.219100839886	1
17	391	1.227629644058	1
17	423	1.313433258541	1
17	424	1.313433258541	1
17	540	1.582811613296	1
17	574	1.679912884448	1
17	613	1.79782642001	1
17	655	1.959979301746	1
17	667	1.988037884448	1
17	668	1.988037884448	1
17	669	1.988037884448	1
17	670	1.988037884448	1
17	671	1.988037884448	1
17	672	1.988037884448	1
17	673	1.988037884448	1
17	790	2.268104301746	1
17	791	2.268104301746	1
17	792	2.268104301746	1
17	807	2.292863194559	1
17	839	2.419176465792	1
17	887	2.576229301746	1
17	888	2.576229301746	1
17	889	2.576229301746	1
17	890	2.576229301746	1
17	891	2.576229301746	1
17	892	2.576229301746	1
17	893	2.576229301746	1
17	894	2.576229301746	1
17	938	2.678302313161	1
17	1086	2.986427313161	1
17	1087	2.986427313161	1
17	1088	2.986427313161	1
17	1096	2.996600475356	1
17	1140	3.149003835589	1
17	1187	3.294552313161	1
17	1188	3.294552313161	1
17	1189	3.294552313161	1
17	1190	3.294552313161	1
17	1191	3.294552313161	1
17	1192	3.294552313161	1
17	1193	3.294552313161	1
17	1194	3.294552313161	1
17	1195	3.294552313161	1
17	1196	3.294552313161	1
17	1197	3.294552313161	1
17	1215	3.315214855091	1
17	1394	3.623339855091	1
17	1395	3.623339855091	1
17	1396	3.623339855091	1
17	1397	3.623339855091	1
17	1398	3.623339855091	1
17	1399	3.623339855091	1
17	1400	3.623339855091	1
17	1401	3.623339855091	1
17	1402	3.623339855091	1
17	1403	3.623339855091	1
17	1416	3.686026352884	1
17	1569	3.930774422555	1
17	1573	3.936736840481	1
17	1580	3.988803585019	1
17	1620	4.107907526387	1
17	1853	4.869808143662	1
17	1869	4.910151944455	1
17	1943	5.056266362271	1
17	2003	5.214394601018	1
17	2016	5.218276944455	1
17	2017	5.218276944455	1
17	2071	5.364391362271	1
17	2072	5.364391362271	1
17	2073	5.364391362271	1
17	2090	5.411879097302	1
17	2132	5.506542131726	1
17	2150	5.526401944455	1
17	2151	5.526401944455	1
17	2191	5.657231415348	1
17	2212	5.720004097302	1
17	2213	5.720004097302	1
17	2309	5.961710948918	1
17	2353	6.096396878086	1
17	2361	6.114120476603	1
17	2386	6.167547654084	1
17	2427	6.269835948918	1
17	2428	6.269835948918	1
17	2429	6.269835948918	1
17	2430	6.269835948918	1
17	2431	6.269835948918	1
17	2432	6.269835948918	1
17	2433	6.269835948918	1
17	2434	6.269835948918	1
17	2435	6.269835948918	1
17	2501	6.392700591311	1
17	2507	6.404521878086	1
17	2560	6.475672654084	1
17	2561	6.475672654084	1
17	2562	6.475672654084	1
17	2673	6.701013330326	1
17	2692	6.771734363818	1
17	2720	6.81634666114	1
17	2763	6.936664417343	1
17	2861	7.182479877447	1
17	2882	7.244789417343	1
17	2883	7.244789417343	1
17	2902	7.291636105579	1
17	2956	7.452174927991	1
17	2962	7.475888014262	1
19	83	0.2040625	1
19	84	0.2040625	1
19	85	0.2040625	1
19	134	0.408125	1
19	189	0.706718631982	1
19	190	0.706718631982	1
19	225	0.82113207194	1
19	229	0.827626196397	1
19	230	0.827626196397	1
19	252	0.885790111655	1
19	294	1.014843631982	1
19	321	1.051314237257	1
19	322	1.051314237257	1
19	328	1.062008119849	1
19	329	1.062008119849	1
19	351	1.135751196397	1
19	377	1.209370758541	1
19	378	1.209370758541	1
19	394	1.22856696016	1
19	438	1.359439237257	1
19	442	1.370133119849	1
19	446	1.371684356322	1
19	447	1.371684356322	1
19	458	1.396060144723	1
19	470	1.423163339886	1
19	510	1.517495758541	1
19	552	1.664377699102	1
19	565	1.679809356322	1
19	566	1.679809356322	1
19	567	1.679809356322	1
19	606	1.786052944333	1
19	632	1.883975384448	1
19	633	1.883975384448	1
19	646	1.934905150865	1
19	660	1.964356698058	1
19	678	2.00188892001	1
19	719	2.133028897418	1
19	756	2.192100384448	1
19	757	2.192100384448	1
19	758	2.192100384448	1
19	759	2.192100384448	1
19	856	2.472166801746	1
19	857	2.472166801746	1
19	858	2.472166801746	1
19	870	2.496925694559	1
19	904	2.643929564355	1
19	975	2.780291801746	1
19	976	2.780291801746	1
19	977	2.780291801746	1
19	978	2.780291801746	1
19	979	2.780291801746	1
19	980	2.780291801746	1
19	1008	2.849356095267	1
19	1026	2.881079654637	1
19	1040	2.882364813161	1
19	1046	2.923911862502	1
19	1149	3.190489813161	1
19	1150	3.190489813161	1
19	1156	3.194877007003	1
19	1166	3.200662975356	1
19	1232	3.353066335589	1
19	1317	3.498614813161	1
19	1318	3.498614813161	1
19	1319	3.498614813161	1
19	1320	3.498614813161	1
19	1321	3.498614813161	1
19	1322	3.498614813161	1
19	1323	3.498614813161	1
19	1336	3.499095081546	1
19	1342	3.519277355091	1
19	1343	3.519277355091	1
19	1354	3.547188667538	1
19	1484	3.802364053631	1
19	1485	3.802364053631	1
19	1515	3.827402355091	1
19	1516	3.827402355091	1
19	1517	3.827402355091	1
19	1518	3.827402355091	1
19	1519	3.827402355091	1
19	1554	3.919170449216	1
19	1623	4.110489053631	1
19	1627	4.1225285213	1
19	1676	4.356039929162	1
19	1677	4.356039929162	1
19	1714	4.501462131233	1
19	1750	4.659107729981	1
19	1762	4.664164929162	1
19	1763	4.664164929162	1
19	1764	4.664164929162	1
19	1765	4.664164929162	1
19	1785	4.711866302142	1
19	1786	4.711866302142	1
19	1829	4.849197996973	1
19	1830	4.849197996973	1
19	1856	4.888549559006	1
19	1857	4.888549559006	1
19	1905	5.001824528868	1
19	1906	5.001824528868	1
19	1931	5.019991302142	1
19	1979	5.157322996973	1
19	1983	5.181341586128	1
19	1987	5.196674559006	1
19	2026	5.260328862271	1
19	2027	5.260328862271	1
19	2050	5.309949528868	1
19	2103	5.422339444455	1
19	2104	5.422339444455	1
19	2165	5.568453862271	1
19	2177	5.615941597302	1
19	2200	5.696129823989	1
19	2221	5.730464444455	1
19	2235	5.765817658469	1
19	2259	5.842253064228	1
19	2270	5.861293915348	1
19	2325	6.004510685062	1
19	2378	6.165773448918	1
19	2379	6.165773448918	1
19	2411	6.252745205726	1
19	2450	6.318182976603	1
19	2454	6.332267292499	1
19	2462	6.348116184543	1
19	2491	6.371610154084	1
19	2492	6.371610154084	1
19	2514	6.442643172998	1
19	2547	6.473898448918	1
19	2548	6.473898448918	1
19	2549	6.473898448918	1
19	2550	6.473898448918	1
19	2551	6.473898448918	1
19	2602	6.57412596881	1
19	2620	6.596763091311	1
19	2626	6.608584378086	1
19	2642	6.670388492011	1
19	2666	6.679735154084	1
19	2683	6.747647045371	1
19	2699	6.780264232265	1
19	2700	6.780264232265	1
19	2706	6.780720574507	1
19	2707	6.780720574507	1
19	2753	6.905075830326	1
19	2829	7.088389232265	1
19	2830	7.088389232265	1
19	2835	7.088845574507	1
19	2849	7.142691387518	1
19	2924	7.357807181267	1
20	89	0.2040625	0.001
20	90	0.2040625	0.001
20	91	0.2040625	0.001
20	135	0.408125	0.001
20	191	0.706718631982	0.001
20	226	0.82113207194	0.001
20	231	0.827626196397	0.001
20	253	0.885790111655	0.001
20	295	1.014843631982	0.001
20	323	1.051314237257	0.001
20	330	1.062008119849	0.001
20	352	1.135751196397	0.001
20	379	1.209370758541	0.001
20	395	1.22856696016	0.001
20	439	1.359439237257	0.001
20	443	1.370133119849	0.001
20	448	1.371684356322	0.001
20	459	1.396060144723	0.001
20	471	1.423163339886	0.001
20	511	1.517495758541	0.001
20	553	1.664377699102	0.001
20	568	1.679809356322	0.001
20	569	1.679809356322	0.001
20	570	1.679809356322	0.001
20	607	1.786052944333	0.001
20	634	1.883975384448	0.001
20	647	1.934905150865	0.001
20	661	1.964356698058	0.001
20	679	2.00188892001	0.001
20	720	2.133028897418	0.001
20	760	2.192100384448	0.001
20	761	2.192100384448	0.001
20	762	2.192100384448	0.001
20	763	2.192100384448	0.001
20	859	2.472166801746	0.001
20	860	2.472166801746	0.001
20	871	2.496925694559	0.001
20	905	2.643929564355	0.001
20	981	2.780291801746	0.001
20	982	2.780291801746	0.001
20	983	2.780291801746	0.001
20	984	2.780291801746	0.001
20	985	2.780291801746	0.001
20	986	2.780291801746	0.001
20	1009	2.849356095267	0.001
20	1027	2.881079654637	0.001
20	1041	2.882364813161	0.001
20	1047	2.923911862502	0.001
20	1151	3.190489813161	0.001
20	1157	3.194877007003	0.001
20	1167	3.200662975356	0.001
20	1233	3.353066335589	0.001
20	1324	3.498614813161	0.001
20	1325	3.498614813161	0.001
20	1326	3.498614813161	0.001
20	1327	3.498614813161	0.001
20	1328	3.498614813161	0.001
20	1329	3.498614813161	0.001
20	1330	3.498614813161	0.001
20	1337	3.499095081546	0.001
20	1344	3.519277355091	0.001
20	1355	3.547188667538	0.001
20	1486	3.802364053631	0.001
20	1520	3.827402355091	0.001
20	1521	3.827402355091	0.001
20	1522	3.827402355091	0.001
20	1523	3.827402355091	0.001
20	1524	3.827402355091	0.001
20	1555	3.919170449216	0.001
20	1624	4.110489053631	0.001
20	1628	4.1225285213	0.001
20	1678	4.356039929162	0.001
20	1715	4.501462131233	0.001
20	1751	4.659107729981	0.001
20	1766	4.664164929162	0.001
20	1767	4.664164929162	0.001
20	1768	4.664164929162	0.001
20	1769	4.664164929162	0.001
20	1787	4.711866302142	0.001
20	1831	4.849197996973	0.001
20	1858	4.888549559006	0.001
20	1907	5.001824528868	0.001
20	1932	5.019991302142	0.001
20	1980	5.157322996973	0.001
20	1984	5.181341586128	0.001
20	1988	5.196674559006	0.001
20	2028	5.260328862271	0.001
20	2051	5.309949528868	0.001
20	2105	5.422339444455	0.001
20	2166	5.568453862271	0.001
20	2178	5.615941597302	0.001
20	2201	5.696129823989	0.001
20	2222	5.730464444455	0.001
20	2236	5.765817658469	0.001
20	2260	5.842253064228	0.001
20	2271	5.861293915348	0.001
20	2326	6.004510685062	0.001
20	2380	6.165773448918	0.001
20	2412	6.252745205726	0.001
20	2451	6.318182976603	0.001
20	2455	6.332267292499	0.001
20	2463	6.348116184543	0.001
20	2493	6.371610154084	0.001
20	2515	6.442643172998	0.001
20	2552	6.473898448918	0.001
20	2553	6.473898448918	0.001
20	2554	6.473898448918	0.001
20	2555	6.473898448918	0.001
20	2556	6.473898448918	0.001
20	2603	6.57412596881	0.001
20	2621	6.596763091311	0.001
20	2627	6.608584378086	0.001
20	2643	6.670388492011	0.001
20	2667	6.679735154084	0.001
20	2684	6.747647045371	0.001
20	2701	6.780264232265	0.001
20	2708	6.780720574507	0.001
20	2754	6.905075830326	0.001
20	2831	7.088389232265	0.001
20	2832	7.088389232265	0.001
20	2836	7.088845574507	0.001
20	2850	7.142691387518	0.001
20	2925	7.357807181267	0.001
21	89	0.2040625	1
21	90	0.2040625	1
21	91	0.2040625	1
21	135	0.408125	1
21	191	0.706718631982	1
21	226	0.82113207194	1
21	231	0.827626196397	1
21	253	0.885790111655	1
21	295	1.014843631982	1
21	323	1.051314237257	1
21	330	1.062008119849	1
21	352	1.135751196397	1
21	379	1.209370758541	1
21	395	1.22856696016	1
21	439	1.359439237257	1
21	443	1.370133119849	1
21	448	1.371684356322	1
21	459	1.396060144723	1
21	471	1.423163339886	1
21	511	1.517495758541	1
21	553	1.664377699102	1
21	568	1.679809356322	1
21	569	1.679809356322	1
21	570	1.679809356322	1
21	607	1.786052944333	1
21	634	1.883975384448	1
21	647	1.934905150865	1
21	661	1.964356698058	1
21	679	2.00188892001	1
21	720	2.133028897418	1
21	760	2.192100384448	1
21	761	2.192100384448	1
21	762	2.192100384448	1
21	763	2.192100384448	1
21	859	2.472166801746	1
21	860	2.472166801746	1
21	871	2.496925694559	1
21	905	2.643929564355	1
21	981	2.780291801746	1
21	982	2.780291801746	1
21	983	2.780291801746	1
21	984	2.780291801746	1
21	985	2.780291801746	1
21	986	2.780291801746	1
21	1009	2.849356095267	1
21	1027	2.881079654637	1
21	1041	2.882364813161	1
21	1047	2.923911862502	1
21	1151	3.190489813161	1
21	1157	3.194877007003	1
21	1167	3.200662975356	1
21	1233	3.353066335589	1
21	1324	3.498614813161	1
21	1325	3.498614813161	1
21	1326	3.498614813161	1
21	1327	3.498614813161	1
21	1328	3.498614813161	1
21	1329	3.498614813161	1
21	1330	3.498614813161	1
21	1337	3.499095081546	1
21	1344	3.519277355091	1
21	1355	3.547188667538	1
21	1486	3.802364053631	1
21	1520	3.827402355091	1
21	1521	3.827402355091	1
21	1522	3.827402355091	1
21	1523	3.827402355091	1
21	1524	3.827402355091	1
21	1555	3.919170449216	1
21	1624	4.110489053631	1
21	1628	4.1225285213	1
21	1678	4.356039929162	1
21	1715	4.501462131233	1
21	1751	4.659107729981	1
21	1766	4.664164929162	1
21	1767	4.664164929162	1
21	1768	4.664164929162	1
21	1769	4.664164929162	1
21	1787	4.711866302142	1
21	1831	4.849197996973	1
21	1858	4.888549559006	1
21	1907	5.001824528868	1
21	1932	5.019991302142	1
21	1980	5.157322996973	1
21	1984	5.181341586128	1
21	1988	5.196674559006	1
21	2028	5.260328862271	1
21	2051	5.309949528868	1
21	2105	5.422339444455	1
21	2166	5.568453862271	1
21	2178	5.615941597302	1
21	2201	5.696129823989	1
21	2222	5.730464444455	1
21	2236	5.765817658469	1
21	2260	5.842253064228	1
21	2271	5.861293915348	1
21	2326	6.004510685062	1
21	2380	6.165773448918	1
21	2412	6.252745205726	1
21	2451	6.318182976603	1
21	2455	6.332267292499	1
21	2463	6.348116184543	1
21	2493	6.371610154084	1
21	2515	6.442643172998	1
21	2552	6.473898448918	1
21	2553	6.473898448918	1
21	2554	6.473898448918	1
21	2555	6.473898448918	1
21	2556	6.473898448918	1
21	2603	6.57412596881	1
21	2621	6.596763091311	1
21	2627	6.608584378086	1
21	2643	6.670388492011	1
21	2667	6.679735154084	1
21	2684	6.747647045371	1
21	2701	6.780264232265	1
21	2708	6.780720574507	1
21	2754	6.905075830326	1
21	2831	7.088389232265	1
21	2832	7.088389232265	1
21	2836	7.088845574507	1
21	2850	7.142691387518	1
21	2925	7.357807181267	1
26	12	0	1
26	163	0.592844616388	1
26	432	1.329762794309	1
26	724	2.150756025219	1
26	1133	3.112944570134	1
26	1173	3.236764552534	1
26	1409	3.64394785021	1
26	1575	3.955892845751	1
26	1691	4.41190746915	1
26	1990	5.200646890554	1
26	2240	5.787057060509	1
26	2636	6.649248574621	1
26	2816	7.079651014174	1
27	23	0	0.001
27	164	0.592844616388	0.001
27	433	1.329762794309	0.001
27	725	2.150756025219	0.001
27	1134	3.112944570134	0.001
27	1174	3.236764552534	0.001
27	1410	3.64394785021	0.001
27	1576	3.955892845751	0.001
27	1692	4.41190746915	0.001
27	1991	5.200646890554	0.001
27	2241	5.787057060509	0.001
27	2637	6.649248574621	0.001
27	2817	7.079651014174	0.001
28	23	0	1
28	164	0.592844616388	1
28	433	1.329762794309	1
28	725	2.150756025219	1
28	1134	3.112944570134	1
28	1174	3.236764552534	1
28	1410	3.64394785021	1
28	1576	3.955892845751	1
28	1692	4.41190746915	1
28	1991	5.200646890554	1
28	2241	5.787057060509	1
28	2637	6.649248574621	1
28	2817	7.079651014174	1
29	13	0	1
29	237	0.84426574409	1
29	413	1.29421573365	1
29	649	1.950545325641	1
29	772	2.239951416615	1
29	846	2.463033047269	1
29	1276	3.428449265888	1
29	1534	3.891900242069	1
29	1793	4.746513825138	1
29	2032	5.263892936282	1
29	2405	6.241388071555	1
29	2442	6.296762388426	1
29	2779	6.98004372231	1
29	2811	7.07350317714	1
30	24	0	0.001
30	238	0.84426574409	0.001
30	414	1.29421573365	0.001
30	650	1.950545325641	0.001
30	773	2.239951416615	0.001
30	847	2.463033047269	0.001
30	1277	3.428449265888	0.001
30	1535	3.891900242069	0.001
30	1794	4.746513825138	0.001
30	2033	5.263892936282	0.001
30	2406	6.241388071555	0.001
30	2443	6.296762388426	0.001
30	2780	6.98004372231	0.001
30	2812	7.07350317714	0.001
31	24	0	1
31	238	0.84426574409	1
31	414	1.29421573365	1
31	650	1.950545325641	1
31	773	2.239951416615	1
31	847	2.463033047269	1
31	1277	3.428449265888	1
31	1535	3.891900242069	1
31	1794	4.746513825138	1
31	2033	5.263892936282	1
31	2406	6.241388071555	1
31	2443	6.296762388426	1
31	2780	6.98004372231	1
31	2812	7.07350317714	1
32	14	0	1
32	246	0.857945619849	1
32	363	1.166070619849	0.66666666666667
32	590	1.760294198058	0.75
32	932	2.677017154637	0.8
32	1201	3.295032581546	0.83333333333333
32	1441	3.715107949216	0.85714285714286
32	1537	3.90130095463	0.875
32	1746	4.645135496973	0.88888888888889
32	1838	4.860016233517	0.9
32	1889	4.953260496973	0.81818181818182
32	2245	5.800448185062	0.83333333333333
32	2366	6.144053684543	0.84615384615385
32	2613	6.576201732265	0.85714285714286
32	2744	6.884326732265	0.8
32	2852	7.153744681267	0.8125
32	2931	7.386610155919	0.82352941176471
33	25	0	0.001
33	247	0.857945619849	0.001
33	364	1.166070619849	0.001
33	591	1.760294198058	0.001
33	933	2.677017154637	0.001
33	1202	3.295032581546	0.001
33	1442	3.715107949216	0.001
33	1538	3.90130095463	0.001
33	1747	4.645135496973	0.001
33	1839	4.860016233517	0.001
33	1890	4.953260496973	0.001
33	2246	5.800448185062	0.001
33	2367	6.144053684543	0.001
33	2614	6.576201732265	0.001
33	2745	6.884326732265	0.001
33	2746	6.884326732265	0.001
33	2747	6.884326732265	0.001
33	2853	7.153744681267	0.001
33	2932	7.386610155919	0.001
34	25	0	1
34	247	0.857945619849	1
34	364	1.166070619849	1
34	591	1.760294198058	1
34	933	2.677017154637	1
34	1202	3.295032581546	1
34	1442	3.715107949216	1
34	1538	3.90130095463	1
34	1747	4.645135496973	1
34	1839	4.860016233517	1
34	1890	4.953260496973	1
34	2246	5.800448185062	1
34	2367	6.144053684543	1
34	2614	6.576201732265	1
34	2745	6.884326732265	1
34	2746	6.884326732265	1
34	2747	6.884326732265	1
34	2853	7.153744681267	1
34	2932	7.386610155919	1
35	15	0	1
35	243	0.847251737257	1
35	358	1.155376737257	0.66666666666667
35	481	1.460315199102	0.75
35	642	1.928966397418	0.8
35	907	2.645293595267	0.83333333333333
35	1178	3.251686812143	0.85714285714286
35	1655	4.234261768867	0.875
35	1717	4.507803802142	0.88888888888889
35	1820	4.815928802142	0.8
35	2120	5.465254658131	0.81818181818182
35	2402	6.238580672998	0.83333333333333
35	2487	6.37006346881	0.84615384615385
35	2616	6.576658074507	0.85714285714286
35	2749	6.884783074507	0.8
36	26	0	0.001
36	244	0.847251737257	0.001
36	359	1.155376737257	0.001
36	482	1.460315199102	0.001
36	643	1.928966397418	0.001
36	908	2.645293595267	0.001
36	1179	3.251686812143	0.001
36	1656	4.234261768867	0.001
36	1718	4.507803802142	0.001
36	1821	4.815928802142	0.001
36	1822	4.815928802142	0.001
36	1823	4.815928802142	0.001
36	1824	4.815928802142	0.001
36	2121	5.465254658131	0.001
36	2403	6.238580672998	0.001
36	2488	6.37006346881	0.001
36	2617	6.576658074507	0.001
36	2750	6.884783074507	0.001
37	26	0	1
37	244	0.847251737257	1
37	359	1.155376737257	1
37	482	1.460315199102	1
37	643	1.928966397418	1
37	908	2.645293595267	1
37	1179	3.251686812143	1
37	1656	4.234261768867	1
37	1718	4.507803802142	1
37	1821	4.815928802142	1
37	1822	4.815928802142	1
37	1823	4.815928802142	1
37	1824	4.815928802142	1
37	2121	5.465254658131	1
37	2403	6.238580672998	1
37	2488	6.37006346881	1
37	2617	6.576658074507	1
37	2750	6.884783074507	1
38	16	0	1
38	174	0.623563696397	1
38	267	0.931688696397	0.66666666666667
38	369	1.191997644723	0.75
38	555	1.666695149846	0.8
38	584	1.730842650865	0.83333333333333
38	896	2.595945214849	0.85714285714286
38	1090	2.990814507003	0.875
38	1223	3.343126167538	0.88888888888889
38	1438	3.708622267231	0.9
38	1550	3.9184660213	0.90909090909091
38	1696	4.455045229981	0.91666666666667
38	1774	4.684487059006	0.92307692307692
38	1901	4.992612059006	0.85714285714286
38	2127	5.492067323989	0.86666666666667
38	2523	6.466325992011	0.875
38	2727	6.840139131518	0.88235294117647
39	27	0	0.001
39	175	0.623563696397	0.001
39	268	0.931688696397	0.001
39	370	1.191997644723	0.001
39	556	1.666695149846	0.001
39	585	1.730842650865	0.001
39	897	2.595945214849	0.001
39	1091	2.990814507003	0.001
39	1224	3.343126167538	0.001
39	1439	3.708622267231	0.001
39	1551	3.9184660213	0.001
39	1697	4.455045229981	0.001
39	1775	4.684487059006	0.001
39	1902	4.992612059006	0.001
39	2128	5.492067323989	0.001
39	2524	6.466325992011	0.001
39	2728	6.840139131518	0.001
40	27	0	1
40	175	0.623563696397	1
40	268	0.931688696397	1
40	370	1.191997644723	1
40	556	1.666695149846	1
40	585	1.730842650865	1
40	897	2.595945214849	1
40	1091	2.990814507003	1
40	1224	3.343126167538	1
40	1439	3.708622267231	1
40	1551	3.9184660213	1
40	1697	4.455045229981	1
40	1775	4.684487059006	1
40	1902	4.992612059006	1
40	2128	5.492067323989	1
40	2524	6.466325992011	1
40	2728	6.840139131518	1
41	17	0	1
41	118	0.384381708223	1
41	149	0.502656131982	1
41	218	0.810781131982	0.75
41	305	1.02450446016	0.8
41	484	1.463105973553	0.83333333333333
41	841	2.439867064355	0.85714285714286
41	953	2.753085396483	0.875
41	1002	2.845459283094	0.88888888888889
41	1332	3.498660098525	0.9
41	1350	3.53049902245	0.90909090909091
41	1636	4.151977429162	0.91666666666667
41	1703	4.460102429162	0.84615384615385
41	1810	4.797762028868	0.85714285714286
41	1957	5.105887028868	0.8
41	2186	5.638190564228	0.8125
41	2332	6.048682705726	0.82352941176471
41	2363	6.128204792499	0.83333333333333
41	2767	6.938628887518	0.84210526315789
41	2945	7.397232844021	0.85
42	28	0	0.001
42	119	0.384381708223	0.001
42	150	0.502656131982	0.001
42	219	0.810781131982	0.001
42	306	1.02450446016	0.001
42	485	1.463105973553	0.001
42	842	2.439867064355	0.001
42	954	2.753085396483	0.001
42	1003	2.845459283094	0.001
42	1333	3.498660098525	0.001
42	1351	3.53049902245	0.001
42	1637	4.151977429162	0.001
42	1704	4.460102429162	0.001
42	1705	4.460102429162	0.001
42	1706	4.460102429162	0.001
42	1707	4.460102429162	0.001
42	1708	4.460102429162	0.001
42	1811	4.797762028868	0.001
42	1958	5.105887028868	0.001
42	2187	5.638190564228	0.001
42	2333	6.048682705726	0.001
42	2364	6.128204792499	0.001
42	2768	6.938628887518	0.001
42	2946	7.397232844021	0.001
43	28	0	1
43	119	0.384381708223	1
43	150	0.502656131982	1
43	219	0.810781131982	1
43	306	1.02450446016	1
43	485	1.463105973553	1
43	842	2.439867064355	1
43	954	2.753085396483	1
43	1003	2.845459283094	1
43	1333	3.498660098525	1
43	1351	3.53049902245	1
43	1637	4.151977429162	1
43	1704	4.460102429162	1
43	1705	4.460102429162	1
43	1706	4.460102429162	1
43	1707	4.460102429162	1
43	1708	4.460102429162	1
43	1811	4.797762028868	1
43	1958	5.105887028868	1
43	2187	5.638190564228	1
43	2333	6.048682705726	1
43	2364	6.128204792499	1
43	2768	6.938628887518	1
43	2946	7.397232844021	1
44	18	0	1
44	101	0.297534605255	1
44	366	1.167621856322	1
44	491	1.475746856322	0.75
44	535	1.581990444333	0.8
44	794	2.27065163059	0.83333333333333
44	946	2.719849362502	0.85714285714286
44	1367	3.598301553631	0.875
44	1545	3.906426553631	0.77777777777778
44	1664	4.297399631233	0.8
44	1896	4.977279086128	0.81818181818182