version 2
run General-0-20150601-17:38:56-6228
attr configname General
attr datetime 20150601-17:38:56
attr experiment General
attr inifile omnetpp.ini
attr iterationvars ""
attr iterationvars2 $repetition=0
attr measurement ""
attr network Wsn
attr processid 6228
attr repetition 0
attr replication #0
attr resultdir results
attr runnumber 0
attr seedset 0

vector 26  Wsn.Sensor_0.queue  "rate of channel"  ETV
vector 29  Wsn.Sensor_1.queue  "rate of channel"  ETV
vector 32  Wsn.Sensor_2.queue  "rate of channel"  ETV
vector 35  Wsn.Sensor_3.queue  "rate of channel"  ETV
vector 38  Wsn.Sensor_4.queue  "rate of channel"  ETV
vector 41  Wsn.Sensor_5.queue  "rate of channel"  ETV
vector 44  Wsn.Sensor_6.queue  "rate of channel"  ETV
vector 47  Wsn.Sensor_7.queue  "rate of channel"  ETV
vector 50  Wsn.Sensor_8.queue  "rate of channel"  ETV
vector 53  Wsn.Sensor_9.queue  "rate of channel"  ETV
vector 56  Wsn.Sensor_10.queue  "rate of channel"  ETV
vector 27  Wsn.Sensor_0.control  time  ETV
vector 28  Wsn.Sensor_0.control  "length of the queue"  ETV
vector 30  Wsn.Sensor_1.control  time  ETV
vector 31  Wsn.Sensor_1.control  "length of the queue"  ETV
vector 33  Wsn.Sensor_2.control  time  ETV
vector 34  Wsn.Sensor_2.control  "length of the queue"  ETV
vector 36  Wsn.Sensor_3.control  time  ETV
vector 37  Wsn.Sensor_3.control  "length of the queue"  ETV
vector 39  Wsn.Sensor_4.control  time  ETV
vector 40  Wsn.Sensor_4.control  "length of the queue"  ETV
vector 42  Wsn.Sensor_5.control  time  ETV
vector 43  Wsn.Sensor_5.control  "length of the queue"  ETV
vector 45  Wsn.Sensor_6.control  time  ETV
vector 46  Wsn.Sensor_6.control  "length of the queue"  ETV
vector 48  Wsn.Sensor_7.control  time  ETV
vector 49  Wsn.Sensor_7.control  "length of the queue"  ETV
vector 51  Wsn.Sensor_8.control  time  ETV
vector 52  Wsn.Sensor_8.control  "length of the queue"  ETV
vector 54  Wsn.Sensor_9.control  time  ETV
vector 55  Wsn.Sensor_9.control  "length of the queue"  ETV
vector 57  Wsn.Sensor_10.control  time  ETV
vector 58  Wsn.Sensor_10.control  "length of the queue"  ETV
vector 15  Wsn.Sink.queue  "rate of channel"  ETV
vector 16  Wsn.Sink.control  time  ETV
vector 17  Wsn.Sink.control  "length of the queue"  ETV
vector 19  Wsn.Sink2.queue  "rate of channel"  ETV
vector 20  Wsn.Sink2.control  time  ETV
vector 21  Wsn.Sink2.control  "length of the queue"  ETV
vector 23  Wsn.Gateway.queue  "rate of channel"  ETV
15	45	0.12428089912	1
15	68	0.44145866163	1
15	111	0.752234376557	1
15	146	0.938932232614	1
15	223	1.177629547016	1
15	224	1.177629547016	1
15	242	1.202493150187	0.85714285714286
15	266	1.302720204516	0.875
15	267	1.302720204516	0.88888888888889
15	282	1.340343232089	0.9
15	283	1.340343232089	0.90909090909091
15	342	1.482855818168	0.91666666666667
15	394	1.597312726134	0.92307692307692
15	402	1.606943605634	0.85714285714286
15	418	1.629572918804	0.86666666666667
15	419	1.629572918804	0.875
15	506	1.85780546935	0.82352941176471
15	582	2.076879899305	0.83333333333333
15	583	2.076879899305	0.84210526315789
15	603	2.126174351244	0.85
15	634	2.240477981799	0.85714285714286
15	635	2.240477981799	0.86363636363636
15	705	2.363367421009	0.82608695652174
15	739	2.401581538653	0.79166666666667
15	743	2.406872423421	0.8
15	815	2.550969782805	0.80769230769231
15	816	2.550969782805	0.81481481481481
15	831	2.583287227133	0.82142857142857
15	832	2.583287227133	0.82758620689655
15	838	2.584849970934	0.83333333333333
15	839	2.584849970934	0.83870967741935
15	865	2.639510713571	0.84375
15	943	2.75513708771	0.81818181818182
15	970	2.799886463719	0.82352941176471
15	971	2.799886463719	0.82857142857143
15	977	2.802649646232	0.80555555555556
15	989	2.832954171967	0.78378378378378
15	1070	2.957559556754	0.78947368421053
15	1071	2.957559556754	0.79487179487179
15	1079	2.973124944658	0.8
15	1080	2.973124944658	0.80487804878049
15	1177	3.152491567357	0.80952380952381
15	1178	3.152491567357	0.81395348837209
15	1197	3.196443722169	0.81818181818182
15	1209	3.217855217788	0.8
15	1236	3.29143852093	0.80434782608696
15	1237	3.29143852093	0.80851063829787
15	1312	3.414453377646	0.8125
15	1313	3.414453377646	0.81632653061224
15	1355	3.481984540175	0.82
15	1408	3.576124245113	0.82352941176471
15	1409	3.576124245113	0.82692307692308
15	1474	3.680112599912	0.83018867924528
15	1503	3.703218303553	0.81481481481481
15	1570	3.797487249874	0.8
15	1629	3.889016022362	0.80357142857143
15	1630	3.889016022362	0.80701754385965
15	1658	3.939628596582	0.81034482758621
15	1659	3.939628596582	0.8135593220339
15	1704	4.016942632074	0.81666666666667
15	1705	4.016942632074	0.81967213114754
15	1773	4.13062720914	0.82258064516129
15	1819	4.23649508719	0.80952380952381
15	1850	4.266120612907	0.8125
15	1916	4.37183279432	0.81538461538462
15	1917	4.37183279432	0.81818181818182
15	1923	4.378771876018	0.80597014925373
15	2067	4.604101404581	0.80882352941176
15	2068	4.604101404581	0.81159420289855
15	2184	4.745819402782	0.81428571428571
15	2185	4.745819402782	0.8169014084507
15	2256	4.851481969986	0.81944444444444
15	2257	4.851481969986	0.82191780821918
15	2270	4.857553888732	0.82432432432432
15	2276	4.872360804617	0.82666666666667
15	2277	4.872360804617	0.82894736842105
15	2367	5.033492218523	0.83116883116883
15	2368	5.033492218523	0.83333333333333
15	2383	5.04857627843	0.83544303797468
15	2384	5.04857627843	0.8375
15	2390	5.049456099668	0.82716049382716
15	2424	5.146139459848	0.82926829268293
15	2503	5.287276860491	0.83132530120482
15	2504	5.287276860491	0.83333333333333
15	2512	5.297255010722	0.82352941176471
15	2528	5.317659095074	0.82558139534884
15	2529	5.317659095074	0.82758620689655
15	2568	5.387756513128	0.81818181818182
15	2591	5.419655702006	0.82022471910112
15	2592	5.419655702006	0.82222222222222
15	2659	5.533121469015	0.82417582417582
15	2660	5.533121469015	0.82608695652174
15	2762	5.646843972173	0.82795698924731
15	2763	5.646843972173	0.82978723404255
15	2786	5.663040298787	0.83157894736842
15	2787	5.663040298787	0.83333333333333
15	2833	5.694267819547	0.82474226804124
15	2871	5.765866425515	0.8265306122449
15	2875	5.765947785839	0.82828282828283
15	2876	5.765947785839	0.83
15	2886	5.769468227436	0.82178217821782
15	2904	5.786208095193	0.81372549019608
15	2959	5.874346794843	0.81553398058252
15	2960	5.874346794843	0.81730769230769
15	3083	6.115542652014	0.80952380952381
15	3166	6.244600063941	0.81132075471698
15	3167	6.244600063941	0.81308411214953
15	3175	6.253814891963	0.81481481481481
15	3215	6.317961307285	0.80733944954128
15	3332	6.464373564158	0.80909090909091
15	3333	6.464373564158	0.81081081081081
15	3439	6.704856217301	0.8125
15	3440	6.704856217301	0.8141592920354
15	3446	6.705837924781	0.81578947368421
15	3447	6.705837924781	0.81739130434783
15	3453	6.708532386381	0.81896551724138
15	3454	6.708532386381	0.82051282051282
15	3558	6.849369760271	0.8135593220339
15	3572	6.879321582899	0.81512605042017
15	3573	6.879321582899	0.81666666666667
15	3615	6.953344916372	0.8099173553719
15	3631	6.985238417569	0.81147540983607
15	3645	7.019652569484	0.8130081300813
15	3683	7.088621311749	0.81451612903226
15	3684	7.088621311749	0.816
15	3727	7.171198823772	0.81746031746032
15	3728	7.171198823772	0.81889763779528
15	3785	7.24227449303	0.8203125
15	3786	7.24227449303	0.82170542635659
15	3810	7.275268601647	0.81538461538462
15	3966	7.510284154482	0.81679389312977
15	3994	7.557374978477	0.81818181818182
15	4009	7.563418204247	0.81954887218045
15	4010	7.563418204247	0.82089552238806
15	4049	7.61312053123	0.81481481481481
15	4056	7.619433924837	0.81617647058824
15	4057	7.619433924837	0.81751824817518
15	4081	7.664744137566	0.81159420289855
15	4087	7.667251351106	0.81294964028777
15	4088	7.667251351106	0.81428571428571
15	4097	7.671168103862	0.81560283687943
15	4296	8.092586194326	0.8169014084507
15	4297	8.092586194326	0.81818181818182
15	4328	8.143778911719	0.8125
15	4336	8.156529318469	0.80689655172414
15	4363	8.189162628307	0.80821917808219
15	4364	8.189162628307	0.80952380952381
15	4425	8.270277974942	0.81081081081081
15	4426	8.270277974942	0.81208053691275
15	4497	8.349159075575	0.81333333333333
15	4498	8.349159075575	0.81456953642384
15	4638	8.55749530501	0.81578947368421
15	4639	8.55749530501	0.81699346405229
15	4650	8.578432871075	0.81818181818182
15	4651	8.578432871075	0.81935483870968
15	4657	8.584361078264	0.82051282051282
15	4688	8.638248261223	0.81528662420382
15	4698	8.648672354764	0.81012658227848
15	4702	8.651178545126	0.81132075471698
15	4703	8.651178545126	0.8125
15	4738	8.745134918533	0.81366459627329
15	4739	8.745134918533	0.81481481481481
15	4820	8.938273448881	0.8159509202454
15	4821	8.938273448881	0.81707317073171
15	4912	9.10292556001	0.81212121212121
15	4929	9.142361572052	0.80722891566265
15	4963	9.178734417818	0.80838323353293
15	4964	9.178734417818	0.80952380952381
15	5012	9.28051570353	0.81065088757396
15	5013	9.28051570353	0.81176470588235
15	5024	9.288059950613	0.81286549707602
15	5025	9.288059950613	0.81395348837209
15	5082	9.368019069005	0.8150289017341
15	5083	9.368019069005	0.81609195402299
15	5103	9.392422282054	0.81142857142857
15	5137	9.43468496511	0.8125
15	5138	9.43468496511	0.8135593220339
15	5150	9.444792943933	0.81460674157303
15	5151	9.444792943933	0.81564245810056
15	5157	9.451294869807	0.81111111111111
15	5229	9.546005656867	0.8121546961326
15	5230	9.546005656867	0.81318681318681
15	5270	9.584365643719	0.80874316939891
15	5351	9.732797556594	0.80978260869565
15	5352	9.732797556594	0.81081081081081
15	5377	9.773498631111	0.80645161290323
15	5444	9.906749912806	0.80748663101604
15	5445	9.906749912806	0.80851063829787
15	5464	9.940291978223	0.8042328042328
15	5468	9.952872544678	0.80526315789474
15	5469	9.952872544678	0.80628272251309
15	5478	9.975340060006	0.80729166666667
15	5479	9.975340060006	0.80829015544041
15	5485	9.975775250978	0.80927835051546
15	5486	9.975775250978	0.81025641025641
15	5512	9.996256150117	0.81122448979592
15	5513	9.996256150117	0.81218274111675
15	5701	10.283789009126	0.81313131313131
15	5702	10.283789009126	0.81407035175879
15	5716	10.303810554007	0.815
15	5717	10.303810554007	0.81592039800995
15	5735	10.340530662612	0.81683168316832
15	5736	10.340530662612	0.81773399014778
15	5744	10.345761675781	0.81372549019608
15	5806	10.461797351399	0.80975609756098
15	5820	10.49958181805	0.81067961165049
15	5821	10.49958181805	0.81159420289855
15	5829	10.510763799927	0.8125
15	5876	10.577733267143	0.8133971291866
15	5877	10.577733267143	0.81428571428571
15	5885	10.579927012019	0.81516587677725
15	5886	10.579927012019	0.81603773584906
15	5903	10.627122305381	0.8169014084507
15	5904	10.627122305381	0.81775700934579
15	5928	10.643429711506	0.81860465116279
15	5929	10.643429711506	0.81944444444444
15	6001	10.759434136719	0.81566820276498
15	6051	10.839869006917	0.81651376146789
15	6052	10.839869006917	0.81735159817352
15	6134	10.945819536961	0.81363636363636
15	6210	11.041724772583	0.81447963800905
15	6211	11.041724772583	0.81531531531532
15	6219	11.046935706093	0.81614349775785
15	6220	11.046935706093	0.81696428571429
15	6242	11.070831529722	0.81777777777778
15	6282	11.141483213083	0.81858407079646
15	6283	11.141483213083	0.81938325991189
15	6396	11.300851176416	0.82017543859649
15	6397	11.300851176416	0.82096069868996
15	6414	11.330600847648	0.81739130434783
15	6450	11.387933869427	0.81818181818182
15	6451	11.387933869427	0.81896551724138
15	6470	11.412905420679	0.81545064377682
15	6512	11.466502664992	0.81623931623932
15	6513	11.466502664992	0.81702127659574
15	6552	11.508043663853	0.81779661016949
15	6553	11.508043663853	0.81856540084388
15	6559	11.50944310058	0.81932773109244
15	6560	11.50944310058	0.82008368200837
15	6571	11.522865789283	0.81666666666667
15	6577	11.523528391522	0.81327800829876
15	6589	11.538150326618	0.81404958677686
15	6597	11.544031062443	0.81481481481481
15	6598	11.544031062443	0.8155737704918
15	6608	11.564172228377	0.81632653061224
15	6643	11.59007958956	0.81707317073171
15	6644	11.59007958956	0.81781376518219
15	6676	11.622780174406	0.81854838709677
15	6677	11.622780174406	0.81927710843373
15	6717	11.66922895277	0.82
15	6765	11.733229150219	0.8207171314741
15	6832	11.835835235237	0.82142857142857
15	6833	11.835835235237	0.82213438735178
15	6853	11.860240409308	0.81889763779528
15	6866	11.875560600115	0.8156862745098
15	6914	11.961375140619	0.8125
15	6953	12.028852486078	0.81322957198444
15	6954	12.028852486078	0.81395348837209
15	6994	12.105849698462	0.81467181467181
15	6995	12.105849698462	0.81538461538462
15	7013	12.129620540804	0.81226053639847
15	7106	12.261144865816	0.81297709923664
15	7149	12.318814090128	0.81368821292776
15	7150	12.318814090128	0.81439393939394
15	7159	12.341215039871	0.81509433962264
15	7160	12.341215039871	0.81578947368421
15	7256	12.471176630161	0.81647940074906
15	7257	12.471176630161	0.81716417910448
15	7341	12.600459247034	0.817843866171
15	7342	12.600459247034	0.81851851851852
15	7359	12.627153064978	0.81918819188192
15	7360	12.627153064978	0.81985294117647
15	7370	12.630054768788	0.81684981684982
15	7393	12.682023224811	0.81751824817518
15	7394	12.682023224811	0.81818181818182
15	7407	12.684623017824	0.81884057971014
15	7408	12.684623017824	0.81949458483755
15	7414	12.69876409966	0.82014388489209
15	7415	12.69876409966	0.82078853046595
15	7424	12.705500561782	0.81785714285714
15	7466	12.786455723957	0.81494661921708
15	7512	12.893589658239	0.81560283687943
15	7513	12.893589658239	0.81625441696113
15	7605	13.038527157659	0.8169014084507
15	7606	13.038527157659	0.81754385964912
15	7612	13.042073497358	0.81818181818182
15	7613	13.042073497358	0.81881533101045
15	7626	13.044156115996	0.81597222222222
15	7632	13.053137879389	0.81314878892734
15	7653	13.0650069934	0.81379310344828
15	7654	13.0650069934	0.81443298969072
15	7675	13.108106624613	0.81506849315068
15	7676	13.108106624613	0.81569965870307
15	7764	13.256211850007	0.81632653061224
15	7765	13.256211850007	0.81694915254237
15	7839	13.369115439397	0.81756756756757
15	7840	13.369115439397	0.81818181818182
15	7875	13.421351558095	0.81879194630872
15	7876	13.421351558095	0.81939799331104
15	7888	13.455802217841	0.82
15	7889	13.455802217841	0.82059800664452
15	7999	13.618726452604	0.82119205298013
15	8018	13.645977781428	0.82178217821782
15	8019	13.645977781428	0.82236842105263
15	8049	13.666407063166	0.81967213114754
15	8059	13.696849287969	0.81699346405229
15	8067	13.714700439396	0.814332247557
15	8077	13.743202454452	0.81493506493506
15	8078	13.743202454452	0.81553398058252
15	8136	13.816253029665	0.81612903225806
15	8157	13.849291335836	0.81672025723473
15	8194	13.907836739471	0.81730769230769
15	8195	13.907836739471	0.81789137380192
15	8263	14.004799830772	0.81847133757962
15	8276	14.038629539579	0.81587301587302
15	8287	14.066725319864	0.81329113924051
15	8303	14.096634029563	0.81072555205047
15	8360	14.215293471855	0.80817610062893
15	8387	14.256418139948	0.80877742946708
15	8407	14.305475990319	0.80625
15	8428	14.324463388312	0.80685358255452
15	8429	14.324463388312	0.80745341614907
15	8441	14.342261539583	0.80804953560372
15	8442	14.342261539583	0.80864197530864
15	8516	14.474630643291	0.80923076923077
15	8517	14.474630643291	0.80981595092025
15	8536	14.507796094096	0.81039755351682
15	8537	14.507796094096	0.8109756097561
15	8569	14.571810692089	0.81155015197568
15	8595	14.610037668185	0.81212121212121
15	8596	14.610037668185	0.81268882175227
15	8617	14.646821145586	0.81325301204819
15	8618	14.646821145586	0.81381381381381
15	8692	14.819150759516	0.81437125748503
15	8693	14.819150759516	0.81492537313433
15	8718	14.877277709341	0.8125
15	8794	14.978599833369	0.81305637982196
15	8798	14.980532155294	0.81360946745562
15	8799	14.980532155294	0.8141592920354
15	8831	15.018228861659	0.81176470588235
15	8856	15.060777680868	0.80938416422287
15	8911	15.163477500244	0.80994152046784
15	8912	15.163477500244	0.81049562682216
15	8984	15.271664832992	0.81104651162791
15	8985	15.271664832992	0.81159420289855
15	9042	15.367388155231	0.8121387283237
15	9043	15.367388155231	0.81268011527378
15	9099	15.472756184439	0.81034482758621
15	9110	15.497476264169	0.810888252149
15	9111	15.497476264169	0.81142857142857
15	9135	15.528599415703	0.81196581196581
15	9136	15.528599415703	0.8125
15	9185	15.608745716077	0.81019830028329
15	9209	15.637071248528	0.81073446327684
15	9340	15.862431711659	0.8112676056338
15	9422	16.012907828814	0.80898876404494
15	9447	16.040347253943	0.80952380952381
15	9480	16.10353066357	0.81005586592179
15	9481	16.10353066357	0.81058495821727
15	9487	16.113513828997	0.81111111111111
15	9500	16.150652099199	0.81163434903047
15	9571	16.297243096086	0.80939226519337
15	9709	16.609901461202	0.80716253443526
15	9756	16.697138605912	0.80769230769231
15	9757	16.697138605912	0.80821917808219
15	9785	16.726112197536	0.80874316939891
15	9786	16.726112197536	0.80926430517711
15	9796	16.746907039929	0.8070652173913
15	9836	16.801583183739	0.80758807588076
15	9837	16.801583183739	0.80810810810811
15	9942	16.925891141915	0.80862533692722
15	9943	16.925891141915	0.80913978494624
15	10126	17.270597825333	0.80965147453083
15	10214	17.431036806705	0.81016042780749
15	10215	17.431036806705	0.81066666666667
15	10316	17.648184706494	0.81117021276596
15	10436	17.902845373648	0.81167108753316
15	10440	17.920615533983	0.81216931216931
15	10441	17.920615533983	0.81266490765172
15	10476	17.979380661542	0.81315789473684
15	10477	17.979380661542	0.81364829396325
15	10488	17.990357116717	0.81151832460733
15	10653	18.304608768358	0.81201044386423
15	10654	18.304608768358	0.8125
15	10728	18.41072377357	0.81298701298701
15	10729	18.41072377357	0.81347150259067
15	10932	18.819065370168	0.81395348837209
15	10974	18.913745810314	0.81443298969072
15	10975	18.913745810314	0.81491002570694
15	11013	18.977078717007	0.81538461538462
15	11066	19.083601593312	0.81585677749361
15	11093	19.128916765947	0.81632653061224
15	11094	19.128916765947	0.81679389312977
15	11110	19.137609047497	0.81725888324873
15	11111	19.137609047497	0.81772151898734
15	11149	19.239529666062	0.81818181818182
15	11150	19.239529666062	0.81863979848866
15	11231	19.411807928275	0.81909547738693
15	11232	19.411807928275	0.81954887218045
15	11290	19.571111865955	0.8175
15	11314	19.629710450688	0.81795511221945
15	11315	19.629710450688	0.818407960199
15	11333	19.666976390678	0.81885856079404
15	11361	19.732153779511	0.81683168316832
15	11457	19.862467388892	0.81728395061728
15	11503	19.92178714535	0.81773399014778
15	11513	19.931155320172	0.81818181818182
15	11514	19.931155320172	0.81862745098039
15	11540	19.970983643814	0.81907090464548
15	11544	19.975216034019	0.81707317073171
15	11585	20.061553215406	0.81508515815085
15	11692	20.21607892451	0.8131067961165
15	11698	20.231713277902	0.81113801452785
15	11702	20.234746354779	0.80917874396135
15	11777	20.366609555473	0.80963855421687
15	11778	20.366609555473	0.81009615384615
15	11788	20.382069302166	0.80815347721823
15	11792	20.407234806604	0.80861244019139
15	11793	20.407234806604	0.8090692124105
15	11951	20.69968439548	0.80714285714286
15	11977	20.763516467445	0.80760095011876
15	11978	20.763516467445	0.80805687203791
15	11997	20.795765831395	0.80614657210402
15	12103	21.060793869702	0.80660377358491
15	12104	21.060793869702	0.80705882352941
15	12149	21.153444740724	0.8075117370892
15	12150	21.153444740724	0.807962529274
15	12187	21.198071309166	0.80841121495327
15	12188	21.198071309166	0.80885780885781
15	12211	21.230122559153	0.8093023255814
15	12212	21.230122559153	0.80974477958237
15	12307	21.385409674168	0.81018518518519
15	12414	21.581509749209	0.81062355658199
15	12415	21.581509749209	0.8110599078341
15	12430	21.612090324199	0.81149425287356
15	12431	21.612090324199	0.81192660550459
15	12439	21.632745213246	0.81006864988558
15	12492	21.742828793626	0.81050228310502
15	12493	21.742828793626	0.81093394077449
15	12524	21.815817686535	0.81136363636364
15	12525	21.815817686535	0.81179138321995
15	12556	21.855277302002	0.81221719457014
15	12579	21.883922845972	0.81264108352144
15	12580	21.883922845972	0.81306306306306
15	12624	21.940020686042	0.81123595505618
15	12680	22.033138059925	0.80941704035874
15	12719	22.107094363227	0.80984340044743
15	12720	22.107094363227	0.81026785714286
15	12784	22.248874324286	0.81069042316258
15	12785	22.248874324286	0.81111111111111
15	12826	22.3258082328	0.80931263858093
15	12856	22.370031240897	0.80973451327434
15	12857	22.370031240897	0.81015452538631
15	12930	22.479045533376	0.81057268722467
15	12934	22.485677596907	0.80879120879121
15	12967	22.55876676182	0.80701754385965
15	12973	22.573291007114	0.8074398249453
15	12974	22.573291007114	0.80786026200873
15	12984	22.58152372929	0.8082788671024
15	12985	22.58152372929	0.80869565217391
15	13009	22.610480155823	0.80911062906725
15	13010	22.610480155823	0.80952380952381
15	13106	22.757359708694	0.80993520518359
15	13180	22.907536170247	0.81034482758621
15	13181	22.907536170247	0.81075268817204
15	13318	23.173794332682	0.81115879828326
15	13470	23.489776272821	0.80942184154176
15	13488	23.514458864499	0.80982905982906
15	13489	23.514458864499	0.81023454157783
15	13500	23.551692586429	0.81063829787234
15	13594	23.778017275301	0.81104033970276
15	13595	23.778017275301	0.8114406779661
15	13714	23.994423586674	0.81183932346723
15	13715	23.994423586674	0.81223628691983
15	13759	24.039050002963	0.81052631578947
15	13813	24.125066307406	0.8109243697479
15	13814	24.125066307406	0.81132075471698
15	13840	24.164260523194	0.81171548117155
15	13841	24.164260523194	0.81210855949896
15	13847	24.165265846333	0.8125
15	13848	24.165265846333	0.81288981288981
15	13924	24.332495640763	0.81327800829876
15	13925	24.332495640763	0.81366459627329
15	13957	24.438067861045	0.81404958677686
15	14033	24.600091921776	0.81237113402062
15	14059	24.653069643915	0.81069958847737
15	14139	24.818165578217	0.81108829568788
15	14140	24.818165578217	0.81147540983607
15	14154	24.829863493243	0.8118609406953
15	14168	24.853692489588	0.81224489795918
15	14169	24.853692489588	0.81262729124236
15	14192	24.898943672222	0.8130081300813
15	14193	24.898943672222	0.81338742393509
15	14287	25.035046913926	0.81376518218623
15	14288	25.035046913926	0.81414141414141
15	14317	25.075052669183	0.81451612903226
15	14352	25.14588992604	0.8148893360161
15	14353	25.14588992604	0.81526104417671
15	14364	25.153925568475	0.81563126252505
15	14365	25.153925568475	0.816
15	14386	25.205318587743	0.81636726546906
15	14387	25.205318587743	0.81673306772908
15	14420	25.286306493948	0.81709741550696
15	14421	25.286306493948	0.81746031746032
15	14536	25.518699557199	0.81584158415842
15	14553	25.570434594205	0.81620553359684
15	14554	25.570434594205	0.81656804733728
15	14574	25.613573303701	0.81692913385827
15	14575	25.613573303701	0.81728880157171
15	14605	25.686844261626	0.81764705882353
15	14606	25.686844261626	0.81800391389432
15	14651	25.757322674062	0.818359375
15	14652	25.757322674062	0.8187134502924
15	14715	25.83511689227	0.81906614785992
15	14735	25.87546831163	0.81941747572816
15	14755	25.91056818564	0.81782945736434
15	14761	25.921445462885	0.81818181818182
15	14765	25.923812494412	0.81853281853282
15	14766	25.923812494412	0.81888246628131
15	14772	25.926574705077	0.81923076923077
15	14790	25.964845911403	0.81957773512476
15	14791	25.964845911403	0.81992337164751
15	14879	26.101621689408	0.81835564053537
15	15025	26.403575892354	0.81679389312977
15	15052	26.463528929652	0.8152380952381
15	15126	26.630903063372	0.81558935361217
15	15127	26.630903063372	0.81593927893738
15	15167	26.725868173199	0.81628787878788
15	15168	26.725868173199	0.81663516068053
15	15200	26.757705234595	0.81509433962264
15	15256	26.885373740367	0.8135593220339
15	15333	27.074752912887	0.81390977443609
15	15334	27.074752912887	0.81425891181989
15	15370	27.124029306492	0.81460674157303
15	15371	27.124029306492	0.81495327102804
15	15491	27.287232621839	0.81529850746269
15	15492	27.287232621839	0.81564245810056
15	15514	27.311423352821	0.81598513011152
15	15515	27.311423352821	0.81632653061224
15	15544	27.397551166268	0.81481481481481
15	15571	27.434180101754	0.81515711645102
15	15572	27.434180101754	0.81549815498155
15	15592	27.481494661329	0.8158379373849
15	15607	27.510259661621	0.81617647058824
15	15608	27.510259661621	0.81651376146789
15	15698	27.665118492704	0.81684981684982
15	15699	27.665118492704	0.81718464351005
15	15723	27.735639506394	0.81751824817518
15	15724	27.735639506394	0.81785063752277
15	15738	27.755419915342	0.81818181818182
15	15739	27.755419915342	0.81851179673321
15	15752	27.783513869421	0.81884057971014
15	15753	27.783513869421	0.81916817359855
15	15780	27.832501806331	0.81949458483755
15	15781	27.832501806331	0.81981981981982
15	15815	27.889849028229	0.82014388489209
15	15816	27.889849028229	0.82046678635548
15	15904	28.037153392007	0.82078853046595
15	15931	28.0904105498	0.81932021466905
15	15984	28.189116814315	0.81785714285714
15	15998	28.202819050768	0.81639928698752
15	16042	28.25284344519	0.81672597864769
15	16043	28.25284344519	0.81705150976909
15	16075	28.302765735569	0.81737588652482
15	16076	28.302765735569	0.81769911504425
15	16128	28.361274683294	0.81625441696113
15	16166	28.477127262293	0.81481481481481
15	16315	28.837908101766	0.81514084507042
15	16316	28.837908101766	0.81546572934974
15	16356	28.900816737238	0.81578947368421
15	16410	29.018660168191	0.81611208406305
15	16569	29.24199048397	0.81468531468531
15	16573	29.245088892779	0.81326352530541
15	16599	29.29934326958	0.81358885017422
15	16600	29.29934326958	0.81391304347826
15	16635	29.334381735561	0.81423611111111
15	16636	29.334381735561	0.81455805892548
15	16644	29.338332100093	0.81314878892734
15	16654	29.374147395398	0.81347150259067
15	16655	29.374147395398	0.81379310344828
15	16702	29.464394256502	0.81411359724613
15	16841	29.761440166878	0.81443298969072
15	16858	29.778696179421	0.8147512864494
15	16859	29.778696179421	0.81506849315068
15	17030	30.011379273041	0.81367521367521
15	17034	30.014869036525	0.81399317406143
15	17035	30.014869036525	0.81431005110733
15	17057	30.043061798921	0.81292517006803
15	17223	30.39025311268	0.81324278438031
15	17224	30.39025311268	0.8135593220339
15	17230	30.406059549915	0.81387478849408
15	17231	30.406059549915	0.81418918918919
15	17275	30.485337136574	0.81450252951096
15	17276	30.485337136574	0.81481481481481
15	17385	30.751421636463	0.81512605042017
15	17394	30.761167772609	0.81543624161074
15	17395	30.761167772609	0.81574539363484
15	17415	30.779173486771	0.81605351170569
15	17504	30.921943792747	0.81636060100167
15	17505	30.921943792747	0.81666666666667
15	17511	30.926397805594	0.81697171381032
15	17512	30.926397805594	0.81727574750831
15	17536	30.946367651707	0.81757877280265
15	17545	30.95797592765	0.81622516556291
15	17571	30.99869054348	0.81487603305785
15	17623	31.044515595567	0.81518151815182
15	17624	31.044515595567	0.81548599670511
15	17705	31.143880267998	0.81414473684211
15	17715	31.163335325104	0.81444991789819
15	17716	31.163335325104	0.81475409836066
15	17904	31.582285722977	0.81505728314239
15	17905	31.582285722977	0.81535947712418
15	17979	31.709382290045	0.81566068515498
15	17980	31.709382290045	0.81596091205212
15	18032	31.798986249159	0.81463414634146
15	18061	31.842797414196	0.81493506493506
15	18062	31.842797414196	0.81523500810373
15	18126	31.917309653032	0.81553398058252
15	18127	31.917309653032	0.81583198707593
15	18144	31.949131843653	0.81612903225806
15	18145	31.949131843653	0.81642512077295
15	18171	31.975020245675	0.81672025723473
15	18172	31.975020245675	0.81701444622793
15	18190	31.987933996393	0.81730769230769
15	18203	32.004034448664	0.816
15	18240	32.056761823622	0.81629392971246
15	18241	32.056761823622	0.81658692185008
15	18273	32.115785044178	0.81687898089172
15	18314	32.197097463327	0.81717011128776
15	18315	32.197097463327	0.81746031746032
15	18364	32.279786968632	0.81774960380349
15	18365	32.279786968632	0.81803797468354
15	18466	32.40079267442	0.81832543443918
15	18467	32.40079267442	0.8186119873817
15	18473	32.402666924657	0.81732283464567
15	18483	32.420405233183	0.81603773584906
15	18492	32.42412740204	0.81632653061224
15	18493	32.42412740204	0.8166144200627
15	18520	32.480870548533	0.8169014084507
15	18521	32.480870548533	0.8171875
15	18550	32.525699669631	0.81747269890796
15	18551	32.525699669631	0.81775700934579
15	18688	32.72443493179	0.81804043545879
15	18752	32.81769491013	0.81832298136646
15	18753	32.81769491013	0.81860465116279
15	18817	32.90871797981	0.81733746130031
15	18836	32.950196266197	0.81761978361669
15	18837	32.950196266197	0.8179012345679
15	18852	32.965264655891	0.81664098613251
15	18872	32.987813769038	0.81692307692308
15	18873	32.987813769038	0.81720430107527
15	18881	32.995558519871	0.81748466257669
15	18909	33.046652906013	0.81776416539051
15	18916	33.056836412314	0.81804281345566
15	18917	33.056836412314	0.81832061068702
15	18937	33.089072550554	0.81859756097561
15	18938	33.089072550554	0.81887366818874
15	18976	33.133281099171	0.81914893617021
15	18977	33.133281099171	0.81942336874052
15	18992	33.148045723806	0.81969696969697
15	18993	33.148045723806	0.81996974281392
15	19047	33.221191689394	0.8202416918429
15	19048	33.221191689394	0.82051282051282
15	19087	33.296157416326	0.81927710843373
15	19114	33.316124657304	0.81804511278195
15	19187	33.430717066297	0.81831831831832
15	19188	33.430717066297	0.81859070464768
15	19207	33.461801401132	0.8188622754491
15	19208	33.461801401132	0.81913303437967
15	19214	33.463341035083	0.81940298507463
15	19247	33.503287219917	0.81967213114754
15	19248	33.503287219917	0.81994047619048
15	19321	33.602886939558	0.82020802377415
15	19322	33.602886939558	0.82047477744807
15	19380	33.686006982005	0.81925925925926
15	19417	33.731813011484	0.81952662721893
15	19418	33.731813011484	0.81979320531758
15	19485	33.838384488855	0.82005899705015
15	19486	33.838384488855	0.82032400589102
15	19516	33.896252990727	0.82058823529412
15	19517	33.896252990727	0.8208516886931
15	19579	34.004048844006	0.82111436950147
15	19580	34.004048844006	0.82137628111274
15	19605	34.049602158039	0.82163742690058